<?xml version="1.0" encoding="ISO-8859-1"?>
<modeling>
 <generator>
  <i name="program" type="string">vasp </i>
  <i name="version" type="string">5.4.4.18Apr17-6-g9f103f2a35  </i>
  <i name="subversion" type="string">(build Feb 22 2023 13:24:26) complex            parallel </i>
  <i name="platform" type="string">LinuxIFC </i>
  <i name="date" type="string">2023 06 16 </i>
  <i name="time" type="string">18:45:38 </i>
 </generator>
 <incar>
  <i type="string" name="SYSTEM"> band</i>
  <i type="int" name="ISTART">     1</i>
  <i type="string" name="PREC">accurate</i>
  <i type="int" name="ISPIN">     1</i>
  <i type="int" name="ICHARG">    11</i>
  <i type="int" name="NELM">   100</i>
  <i type="int" name="IBRION">    -1</i>
  <i name="EDIFF">      0.00000100</i>
  <i name="EDIFFG">     -0.00100000</i>
  <i type="int" name="NSW">     0</i>
  <i type="int" name="ISIF">    -1</i>
  <i name="ENCUT">    500.00000000</i>
  <i type="string" name="LREAL"> Auto</i>
  <i type="int" name="ISMEAR">     0</i>
  <i name="SIGMA">      0.01000000</i>
  <i type="logical" name="LWAVE"> F  </i>
  <i type="logical" name="LCHARG"> T  </i>
  <v type="int" name="KPOINT_BSE">    -1     0     0     0</v>
  <i type="int" name="NELM">   100</i>
 </incar>
 <structure name="primitive_cell" >
  <crystal>
   <varray name="basis" >
    <v>       5.48042998       0.00000000       0.00000000 </v>
    <v>      -2.74021499       4.74619159       0.00000000 </v>
    <v>       0.00000000       0.00000000       9.36161269 </v>
   </varray>
   <i name="volume">    243.50650581 </i>
   <varray name="rec_basis" >
    <v>       0.18246743       0.10534762       0.00000000 </v>
    <v>       0.00000000       0.21069525       0.00000000 </v>
    <v>       0.00000000       0.00000000       0.10681920 </v>
   </varray>
  </crystal>
  <varray name="positions" >
   <v>       0.00000000       0.00000000       0.00000000 </v>
   <v>      -0.33333337       0.33333331      -0.25612684 </v>
   <v>      -0.33333337       0.33333331       0.25612684 </v>
   <v>       0.33333334      -0.33333331       0.25612684 </v>
   <v>       0.33333334      -0.33333331      -0.25612684 </v>
   <v>       0.00000000       0.00000000      -0.50000000 </v>
   <v>      -0.50000000       0.00000000      -0.50000000 </v>
   <v>       0.00000000      -0.50000000      -0.50000000 </v>
   <v>      -0.50000000      -0.50000000      -0.50000000 </v>
  </varray>
 </structure>
 <varray name="primitive_index" >
  <v type="int" >        1 </v>
  <v type="int" >        4 </v>
  <v type="int" >        5 </v>
  <v type="int" >        3 </v>
  <v type="int" >        6 </v>
  <v type="int" >        2 </v>
  <v type="int" >        7 </v>
  <v type="int" >        8 </v>
  <v type="int" >        9 </v>
 </varray>
 <kpoints>
  <generation param="listgenerated">
   <i name="divisions" type="int">      20 </i>
   <v>       0.00000000       0.00000000       0.00000000 </v>
   <v>       0.50000000       0.00000000       0.00000000 </v>
   <v>       0.33333333       0.33333333       0.00000000 </v>
   <v>       0.00000000       0.00000000       0.00000000 </v>
   <v>       0.00000000       0.00000000       0.50000000 </v>
   <v>       0.50000000       0.00000000       0.50000000 </v>
   <v>       0.33333333       0.33333333       0.50000000 </v>
   <v>       0.50000000       0.00000000       0.00000000 </v>
   <v>       0.50000000       0.00000000       0.50000000 </v>
  </generation>
  <varray name="kpointlist" >
   <v>       0.00000000       0.00000000       0.00000000 </v>
   <v>       0.02631579       0.00000000       0.00000000 </v>
   <v>       0.05263158       0.00000000       0.00000000 </v>
   <v>       0.07894737       0.00000000       0.00000000 </v>
   <v>       0.10526316       0.00000000       0.00000000 </v>
   <v>       0.13157895       0.00000000       0.00000000 </v>
   <v>       0.15789474       0.00000000       0.00000000 </v>
   <v>       0.18421053       0.00000000       0.00000000 </v>
   <v>       0.21052632       0.00000000       0.00000000 </v>
   <v>       0.23684211       0.00000000       0.00000000 </v>
   <v>       0.26315789       0.00000000       0.00000000 </v>
   <v>       0.28947368       0.00000000       0.00000000 </v>
   <v>       0.31578947       0.00000000       0.00000000 </v>
   <v>       0.34210526       0.00000000       0.00000000 </v>
   <v>       0.36842105       0.00000000       0.00000000 </v>
   <v>       0.39473684       0.00000000       0.00000000 </v>
   <v>       0.42105263       0.00000000       0.00000000 </v>
   <v>       0.44736842       0.00000000       0.00000000 </v>
   <v>       0.47368421       0.00000000       0.00000000 </v>
   <v>       0.50000000       0.00000000       0.00000000 </v>
   <v>       0.50000000       0.00000000       0.00000000 </v>
   <v>       0.49122807       0.01754386       0.00000000 </v>
   <v>       0.48245614       0.03508772       0.00000000 </v>
   <v>       0.47368421       0.05263158       0.00000000 </v>
   <v>       0.46491228       0.07017544       0.00000000 </v>
   <v>       0.45614035       0.08771930       0.00000000 </v>
   <v>       0.44736842       0.10526316       0.00000000 </v>
   <v>       0.43859649       0.12280702       0.00000000 </v>
   <v>       0.42982456       0.14035088       0.00000000 </v>
   <v>       0.42105263       0.15789474       0.00000000 </v>
   <v>       0.41228070       0.17543860       0.00000000 </v>
   <v>       0.40350877       0.19298246       0.00000000 </v>
   <v>       0.39473684       0.21052632       0.00000000 </v>
   <v>       0.38596491       0.22807018       0.00000000 </v>
   <v>       0.37719298       0.24561404       0.00000000 </v>
   <v>       0.36842105       0.26315789       0.00000000 </v>
   <v>       0.35964912       0.28070175       0.00000000 </v>
   <v>       0.35087719       0.29824561       0.00000000 </v>
   <v>       0.34210526       0.31578947       0.00000000 </v>
   <v>       0.33333333       0.33333333       0.00000000 </v>
   <v>       0.33333333       0.33333333       0.00000000 </v>
   <v>       0.31578947       0.31578947       0.00000000 </v>
   <v>       0.29824561       0.29824561       0.00000000 </v>
   <v>       0.28070175       0.28070175       0.00000000 </v>
   <v>       0.26315789       0.26315789       0.00000000 </v>
   <v>       0.24561404       0.24561404       0.00000000 </v>
   <v>       0.22807018       0.22807018       0.00000000 </v>
   <v>       0.21052632       0.21052632       0.00000000 </v>
   <v>       0.19298246       0.19298246       0.00000000 </v>
   <v>       0.17543860       0.17543860       0.00000000 </v>
   <v>       0.15789474       0.15789474       0.00000000 </v>
   <v>       0.14035088       0.14035088       0.00000000 </v>
   <v>       0.12280702       0.12280702       0.00000000 </v>
   <v>       0.10526316       0.10526316       0.00000000 </v>
   <v>       0.08771930       0.08771930       0.00000000 </v>
   <v>       0.07017544       0.07017544       0.00000000 </v>
   <v>       0.05263158       0.05263158       0.00000000 </v>
   <v>       0.03508772       0.03508772       0.00000000 </v>
   <v>       0.01754386       0.01754386       0.00000000 </v>
   <v>       0.00000000       0.00000000       0.00000000 </v>
   <v>       0.00000000       0.00000000       0.00000000 </v>
   <v>       0.00000000       0.00000000       0.02631579 </v>
   <v>       0.00000000       0.00000000       0.05263158 </v>
   <v>       0.00000000       0.00000000       0.07894737 </v>
   <v>       0.00000000       0.00000000       0.10526316 </v>
   <v>       0.00000000       0.00000000       0.13157895 </v>
   <v>       0.00000000       0.00000000       0.15789474 </v>
   <v>       0.00000000       0.00000000       0.18421053 </v>
   <v>       0.00000000       0.00000000       0.21052632 </v>
   <v>       0.00000000       0.00000000       0.23684211 </v>
   <v>       0.00000000       0.00000000       0.26315789 </v>
   <v>       0.00000000       0.00000000       0.28947368 </v>
   <v>       0.00000000       0.00000000       0.31578947 </v>
   <v>       0.00000000       0.00000000       0.34210526 </v>
   <v>       0.00000000       0.00000000       0.36842105 </v>
   <v>       0.00000000       0.00000000       0.39473684 </v>
   <v>       0.00000000       0.00000000       0.42105263 </v>
   <v>       0.00000000       0.00000000       0.44736842 </v>
   <v>       0.00000000       0.00000000       0.47368421 </v>
   <v>       0.00000000       0.00000000       0.50000000 </v>
   <v>       0.00000000       0.00000000       0.50000000 </v>
   <v>       0.02631579       0.00000000       0.50000000 </v>
   <v>       0.05263158       0.00000000       0.50000000 </v>
   <v>       0.07894737       0.00000000       0.50000000 </v>
   <v>       0.10526316       0.00000000       0.50000000 </v>
   <v>       0.13157895       0.00000000       0.50000000 </v>
   <v>       0.15789474       0.00000000       0.50000000 </v>
   <v>       0.18421053       0.00000000       0.50000000 </v>
   <v>       0.21052632       0.00000000       0.50000000 </v>
   <v>       0.23684211       0.00000000       0.50000000 </v>
   <v>       0.26315789       0.00000000       0.50000000 </v>
   <v>       0.28947368       0.00000000       0.50000000 </v>
   <v>       0.31578947       0.00000000       0.50000000 </v>
   <v>       0.34210526       0.00000000       0.50000000 </v>
   <v>       0.36842105       0.00000000       0.50000000 </v>
   <v>       0.39473684       0.00000000       0.50000000 </v>
   <v>       0.42105263       0.00000000       0.50000000 </v>
   <v>       0.44736842       0.00000000       0.50000000 </v>
   <v>       0.47368421       0.00000000       0.50000000 </v>
   <v>       0.50000000       0.00000000       0.50000000 </v>
   <v>       0.50000000       0.00000000       0.50000000 </v>
   <v>       0.49122807       0.01754386       0.50000000 </v>
   <v>       0.48245614       0.03508772       0.50000000 </v>
   <v>       0.47368421       0.05263158       0.50000000 </v>
   <v>       0.46491228       0.07017544       0.50000000 </v>
   <v>       0.45614035       0.08771930       0.50000000 </v>
   <v>       0.44736842       0.10526316       0.50000000 </v>
   <v>       0.43859649       0.12280702       0.50000000 </v>
   <v>       0.42982456       0.14035088       0.50000000 </v>
   <v>       0.42105263       0.15789474       0.50000000 </v>
   <v>       0.41228070       0.17543860       0.50000000 </v>
   <v>       0.40350877       0.19298246       0.50000000 </v>
   <v>       0.39473684       0.21052632       0.50000000 </v>
   <v>       0.38596491       0.22807018       0.50000000 </v>
   <v>       0.37719298       0.24561404       0.50000000 </v>
   <v>       0.36842105       0.26315789       0.50000000 </v>
   <v>       0.35964912       0.28070175       0.50000000 </v>
   <v>       0.35087719       0.29824561       0.50000000 </v>
   <v>       0.34210526       0.31578947       0.50000000 </v>
   <v>       0.33333333       0.33333333       0.50000000 </v>
   <v>       0.33333333       0.33333333       0.50000000 </v>
   <v>       0.31578947       0.31578947       0.50000000 </v>
   <v>       0.29824561       0.29824561       0.50000000 </v>
   <v>       0.28070175       0.28070175       0.50000000 </v>
   <v>       0.26315789       0.26315789       0.50000000 </v>
   <v>       0.24561404       0.24561404       0.50000000 </v>
   <v>       0.22807018       0.22807018       0.50000000 </v>
   <v>       0.21052632       0.21052632       0.50000000 </v>
   <v>       0.19298246       0.19298246       0.50000000 </v>
   <v>       0.17543860       0.17543860       0.50000000 </v>
   <v>       0.15789474       0.15789474       0.50000000 </v>
   <v>       0.14035088       0.14035088       0.50000000 </v>
   <v>       0.12280702       0.12280702       0.50000000 </v>
   <v>       0.10526316       0.10526316       0.50000000 </v>
   <v>       0.08771930       0.08771930       0.50000000 </v>
   <v>       0.07017544       0.07017544       0.50000000 </v>
   <v>       0.05263158       0.05263158       0.50000000 </v>
   <v>       0.03508772       0.03508772       0.50000000 </v>
   <v>       0.01754386       0.01754386       0.50000000 </v>
   <v>       0.00000000       0.00000000       0.50000000 </v>
   <v>       0.50000000       0.00000000       0.00000000 </v>
   <v>       0.50000000       0.00000000       0.02631579 </v>
   <v>       0.50000000       0.00000000       0.05263158 </v>
   <v>       0.50000000       0.00000000       0.07894737 </v>
   <v>       0.50000000       0.00000000       0.10526316 </v>
   <v>       0.50000000       0.00000000       0.13157895 </v>
   <v>       0.50000000       0.00000000       0.15789474 </v>
   <v>       0.50000000       0.00000000       0.18421053 </v>
   <v>       0.50000000       0.00000000       0.21052632 </v>
   <v>       0.50000000       0.00000000       0.23684211 </v>
   <v>       0.50000000       0.00000000       0.26315789 </v>
   <v>       0.50000000       0.00000000       0.28947368 </v>
   <v>       0.50000000       0.00000000       0.31578947 </v>
   <v>       0.50000000       0.00000000       0.34210526 </v>
   <v>       0.50000000       0.00000000       0.36842105 </v>
   <v>       0.50000000       0.00000000       0.39473684 </v>
   <v>       0.50000000       0.00000000       0.42105263 </v>
   <v>       0.50000000       0.00000000       0.44736842 </v>
   <v>       0.50000000       0.00000000       0.47368421 </v>
   <v>       0.50000000       0.00000000       0.50000000 </v>
  </varray>
  <varray name="weights" >
   <v>       0.00625000 </v>
   <v>       0.00625000 </v>
   <v>       0.00625000 </v>
   <v>       0.00625000 </v>
   <v>       0.00625000 </v>
   <v>       0.00625000 </v>
   <v>       0.00625000 </v>
   <v>       0.00625000 </v>
   <v>       0.00625000 </v>
   <v>       0.00625000 </v>
   <v>       0.00625000 </v>
   <v>       0.00625000 </v>
   <v>       0.00625000 </v>
   <v>       0.00625000 </v>
   <v>       0.00625000 </v>
   <v>       0.00625000 </v>
   <v>       0.00625000 </v>
   <v>       0.00625000 </v>
   <v>       0.00625000 </v>
   <v>       0.00625000 </v>
   <v>       0.00625000 </v>
   <v>       0.00625000 </v>
   <v>       0.00625000 </v>
   <v>       0.00625000 </v>
   <v>       0.00625000 </v>
   <v>       0.00625000 </v>
   <v>       0.00625000 </v>
   <v>       0.00625000 </v>
   <v>       0.00625000 </v>
   <v>       0.00625000 </v>
   <v>       0.00625000 </v>
   <v>       0.00625000 </v>
   <v>       0.00625000 </v>
   <v>       0.00625000 </v>
   <v>       0.00625000 </v>
   <v>       0.00625000 </v>
   <v>       0.00625000 </v>
   <v>       0.00625000 </v>
   <v>       0.00625000 </v>
   <v>       0.00625000 </v>
   <v>       0.00625000 </v>
   <v>       0.00625000 </v>
   <v>       0.00625000 </v>
   <v>       0.00625000 </v>
   <v>       0.00625000 </v>
   <v>       0.00625000 </v>
   <v>       0.00625000 </v>
   <v>       0.00625000 </v>
   <v>       0.00625000 </v>
   <v>       0.00625000 </v>
   <v>       0.00625000 </v>
   <v>       0.00625000 </v>
   <v>       0.00625000 </v>
   <v>       0.00625000 </v>
   <v>       0.00625000 </v>
   <v>       0.00625000 </v>
   <v>       0.00625000 </v>
   <v>       0.00625000 </v>
   <v>       0.00625000 </v>
   <v>       0.00625000 </v>
   <v>       0.00625000 </v>
   <v>       0.00625000 </v>
   <v>       0.00625000 </v>
   <v>       0.00625000 </v>
   <v>       0.00625000 </v>
   <v>       0.00625000 </v>
   <v>       0.00625000 </v>
   <v>       0.00625000 </v>
   <v>       0.00625000 </v>
   <v>       0.00625000 </v>
   <v>       0.00625000 </v>
   <v>       0.00625000 </v>
   <v>       0.00625000 </v>
   <v>       0.00625000 </v>
   <v>       0.00625000 </v>
   <v>       0.00625000 </v>
   <v>       0.00625000 </v>
   <v>       0.00625000 </v>
   <v>       0.00625000 </v>
   <v>       0.00625000 </v>
   <v>       0.00625000 </v>
   <v>       0.00625000 </v>
   <v>       0.00625000 </v>
   <v>       0.00625000 </v>
   <v>       0.00625000 </v>
   <v>       0.00625000 </v>
   <v>       0.00625000 </v>
   <v>       0.00625000 </v>
   <v>       0.00625000 </v>
   <v>       0.00625000 </v>
   <v>       0.00625000 </v>
   <v>       0.00625000 </v>
   <v>       0.00625000 </v>
   <v>       0.00625000 </v>
   <v>       0.00625000 </v>
   <v>       0.00625000 </v>
   <v>       0.00625000 </v>
   <v>       0.00625000 </v>
   <v>       0.00625000 </v>
   <v>       0.00625000 </v>
   <v>       0.00625000 </v>
   <v>       0.00625000 </v>
   <v>       0.00625000 </v>
   <v>       0.00625000 </v>
   <v>       0.00625000 </v>
   <v>       0.00625000 </v>
   <v>       0.00625000 </v>
   <v>       0.00625000 </v>
   <v>       0.00625000 </v>
   <v>       0.00625000 </v>
   <v>       0.00625000 </v>
   <v>       0.00625000 </v>
   <v>       0.00625000 </v>
   <v>       0.00625000 </v>
   <v>       0.00625000 </v>
   <v>       0.00625000 </v>
   <v>       0.00625000 </v>
   <v>       0.00625000 </v>
   <v>       0.00625000 </v>
   <v>       0.00625000 </v>
   <v>       0.00625000 </v>
   <v>       0.00625000 </v>
   <v>       0.00625000 </v>
   <v>       0.00625000 </v>
   <v>       0.00625000 </v>
   <v>       0.00625000 </v>
   <v>       0.00625000 </v>
   <v>       0.00625000 </v>
   <v>       0.00625000 </v>
   <v>       0.00625000 </v>
   <v>       0.00625000 </v>
   <v>       0.00625000 </v>
   <v>       0.00625000 </v>
   <v>       0.00625000 </v>
   <v>       0.00625000 </v>
   <v>       0.00625000 </v>
   <v>       0.00625000 </v>
   <v>       0.00625000 </v>
   <v>       0.00625000 </v>
   <v>       0.00625000 </v>
   <v>       0.00625000 </v>
   <v>       0.00625000 </v>
   <v>       0.00625000 </v>
   <v>       0.00625000 </v>
   <v>       0.00625000 </v>
   <v>       0.00625000 </v>
   <v>       0.00625000 </v>
   <v>       0.00625000 </v>
   <v>       0.00625000 </v>
   <v>       0.00625000 </v>
   <v>       0.00625000 </v>
   <v>       0.00625000 </v>
   <v>       0.00625000 </v>
   <v>       0.00625000 </v>
   <v>       0.00625000 </v>
   <v>       0.00625000 </v>
   <v>       0.00625000 </v>
   <v>       0.00625000 </v>
   <v>       0.00625000 </v>
   <v>       0.00625000 </v>
  </varray>
 </kpoints>
 <parameters>
  <separator name="general" >
   <i type="string" name="SYSTEM">band</i>
   <i type="logical" name="LCOMPAT"> F  </i>
  </separator>
  <separator name="electronic" >
   <i type="string" name="PREC">accura</i>
   <i name="ENMAX">    500.00000000</i>
   <i name="ENAUG">    526.56800000</i>
   <i name="EDIFF">      0.00000100</i>
   <i type="int" name="IALGO">    38</i>
   <i type="int" name="IWAVPR">    10</i>
   <i type="int" name="NBANDS">    60</i>
   <i name="NELECT">     73.00000000</i>
   <i type="int" name="TURBO">     0</i>
   <i type="int" name="IRESTART">     0</i>
   <i type="int" name="NREBOOT">     0</i>
   <i type="int" name="NMIN">     0</i>
   <i name="EREF">      0.00000000</i>
   <separator name="electronic smearing" >
    <i type="int" name="ISMEAR">     0</i>
    <i name="SIGMA">      0.01000000</i>
    <i name="KSPACING">      0.50000000</i>
    <i type="logical" name="KGAMMA"> T  </i>
   </separator>
   <separator name="electronic projectors" >
    <i type="logical" name="LREAL"> T  </i>
    <v name="ROPT">     -0.00025000     -0.00025000     -0.00025000</v>
    <i type="int" name="LMAXPAW">  -100</i>
    <i type="int" name="LMAXMIX">     2</i>
    <i type="logical" name="NLSPLINE"> F  </i>
   </separator>
   <separator name="electronic startup" >
    <i type="int" name="ISTART">     0</i>
    <i type="int" name="ICHARG">    11</i>
    <i type="int" name="INIWAV">     1</i>
   </separator>
   <separator name="electronic spin" >
    <i type="int" name="ISPIN">     1</i>
    <i type="logical" name="LNONCOLLINEAR"> F  </i>
    <v name="MAGMOM">      1.00000000      1.00000000      1.00000000      1.00000000      1.00000000      1.00000000      1.00000000      1.00000000      1.00000000</v>
    <i name="NUPDOWN">     -1.00000000</i>
    <i type="logical" name="LSORBIT"> F  </i>
    <v name="SAXIS">      0.00000000      0.00000000      1.00000000</v>
    <i type="logical" name="LSPIRAL"> F  </i>
    <v name="QSPIRAL">      0.00000000      0.00000000      0.00000000</v>
    <i type="logical" name="LZEROZ"> F  </i>
   </separator>
   <separator name="electronic exchange-correlation" >
    <i type="logical" name="LASPH"> F  </i>
    <i type="logical" name="LMETAGGA"> F  </i>
   </separator>
   <separator name="electronic convergence" >
    <i type="int" name="NELM">   100</i>
    <i type="int" name="NELMDL">     0</i>
    <i type="int" name="NELMIN">     2</i>
    <i name="ENINI">    500.00000000</i>
    <separator name="electronic convergence detail" >
     <i type="logical" name="LDIAG"> T  </i>
     <i type="logical" name="LSUBROT"> F  </i>
     <i name="WEIMIN">      0.00000000</i>
     <i name="EBREAK">      0.00000000</i>
     <i name="DEPER">      0.30000000</i>
     <i type="int" name="NRMM">     4</i>
     <i name="TIME">      0.40000000</i>
    </separator>
   </separator>
   <separator name="electronic mixer" >
    <i name="AMIX">      0.40000000</i>
    <i name="BMIX">      1.00000000</i>
    <i name="AMIN">      0.10000000</i>
    <i name="AMIX_MAG">      1.60000000</i>
    <i name="BMIX_MAG">      1.00000000</i>
    <separator name="electronic mixer details" >
     <i type="int" name="IMIX">     4</i>
     <i type="logical" name="MIXFIRST"> F  </i>
     <i type="int" name="MAXMIX">   -45</i>
     <i name="WC">    100.00000000</i>
     <i type="int" name="INIMIX">     1</i>
     <i type="int" name="MIXPRE">     1</i>
     <i type="int" name="MREMOVE">     5</i>
    </separator>
   </separator>
   <separator name="electronic dipolcorrection" >
    <i type="logical" name="LDIPOL"> F  </i>
    <i type="logical" name="LMONO"> F  </i>
    <i type="int" name="IDIPOL">     0</i>
    <i name="EPSILON">      1.00000000</i>
    <v name="DIPOL">   -100.00000000   -100.00000000   -100.00000000</v>
    <i name="EFIELD">      0.00000000</i>
   </separator>
  </separator>
  <separator name="grids" >
   <i type="int" name="NGX">    40</i>
   <i type="int" name="NGY">    40</i>
   <i type="int" name="NGZ">    70</i>
   <i type="int" name="NGXF">    80</i>
   <i type="int" name="NGYF">    80</i>
   <i type="int" name="NGZF">   140</i>
   <i type="logical" name="ADDGRID"> F  </i>
  </separator>
  <separator name="ionic" >
   <i type="int" name="NSW">     0</i>
   <i type="int" name="IBRION">    -1</i>
   <i type="int" name="MDALGO">     0</i>
   <i type="int" name="ISIF">    -1</i>
   <i name="PSTRESS">      0.00000000</i>
   <i name="EDIFFG">     -0.00100000</i>
   <i type="int" name="NFREE">     0</i>
   <i name="POTIM">      0.50000000</i>
   <i name="SMASS">     -3.00000000</i>
   <i name="SCALEE">      1.00000000</i>
  </separator>
  <separator name="ionic md" >
   <i name="TEBEG">      0.00010000</i>
   <i name="TEEND">      0.00010000</i>
   <i type="int" name="NBLOCK">     1</i>
   <i type="int" name="KBLOCK">     1</i>
   <i type="int" name="NPACO">   256</i>
   <i name="APACO">     16.00000000</i>
  </separator>
  <separator name="symmetry" >
   <i type="int" name="ISYM">     2</i>
   <i name="SYMPREC">      0.00001000</i>
  </separator>
  <separator name="dos" >
   <i type="int" name="LORBIT">     0</i>
   <v name="RWIGS">     -1.00000000     -1.00000000     -1.00000000</v>
   <i type="int" name="NEDOS">   301</i>
   <i name="EMIN">     10.00000000</i>
   <i name="EMAX">    -10.00000000</i>
   <i name="EFERMI">      0.00000000</i>
  </separator>
  <separator name="writing" >
   <i type="int" name="NWRITE">     2</i>
   <i type="logical" name="LWAVE"> F  </i>
   <i type="logical" name="LDOWNSAMPLE"> F  </i>
   <i type="logical" name="LCHARG"> T  </i>
   <i type="logical" name="LPARD"> F  </i>
   <i type="logical" name="LVTOT"> F  </i>
   <i type="logical" name="LVHAR"> F  </i>
   <i type="logical" name="LELF"> F  </i>
   <i type="logical" name="LOPTICS"> F  </i>
   <v name="STM">      0.00000000      0.00000000      0.00000000      0.00000000      0.00000000      0.00000000      0.00000000</v>
  </separator>
  <separator name="performance" >
   <i type="int" name="NPAR">    20</i>
   <i type="int" name="NSIM">     4</i>
   <i type="int" name="NBLK">    -1</i>
   <i type="logical" name="LPLANE"> T  </i>
   <i type="logical" name="LSCALAPACK"> T  </i>
   <i type="logical" name="LSCAAWARE"> F  </i>
   <i type="logical" name="LSCALU"> F  </i>
   <i type="logical" name="LASYNC"> F  </i>
   <i type="logical" name="LORBITALREAL"> F  </i>
  </separator>
  <separator name="miscellaneous" >
   <i type="int" name="IDIOT">     3</i>
   <i type="int" name="ISPECIAL">     0</i>
   <i type="logical" name="LMUSIC"> F  </i>
   <v name="POMASS">     39.09800000    121.75000000     50.94100000</v>
   <v name="DARWINR">      0.00000000      0.00000000      0.00000000</v>
   <v name="DARWINV">      1.00000000      1.00000000      1.00000000</v>
   <i type="logical" name="LCORR"> T  </i>
  </separator>
  <i type="logical" name="GGA_COMPAT"> T  </i>
  <i type="logical" name="LBERRY"> F  </i>
  <i type="int" name="ICORELEVEL">     0</i>
  <i type="logical" name="LDAU"> F  </i>
  <i type="int" name="I_CONSTRAINED_M">     0</i>
  <separator name="electronic exchange-correlation" >
   <i type="string" name="GGA">--</i>
   <i type="int" name="VOSKOWN">     0</i>
   <i type="logical" name="LHFCALC"> F  </i>
   <i type="string" name="PRECFOCK"></i>
   <i type="logical" name="LSYMGRAD"> F  </i>
   <i type="logical" name="LHFONE"> F  </i>
   <i type="logical" name="LRHFCALC"> F  </i>
   <i type="logical" name="LTHOMAS"> F  </i>
   <i type="logical" name="LMODELHF"> F  </i>
   <i name="ENCUT4O">     -1.00000000</i>
   <i type="int" name="EXXOEP">     0</i>
   <i type="int" name="FOURORBIT">     0</i>
   <i name="AEXX">      0.00000000</i>
   <i name="HFALPHA">      0.00000000</i>
   <i name="MCALPHA">      0.00000000</i>
   <i name="ALDAX">      1.00000000</i>
   <i name="AGGAX">      1.00000000</i>
   <i name="ALDAC">      1.00000000</i>
   <i name="AGGAC">      1.00000000</i>
   <i type="int" name="NKREDX">     1</i>
   <i type="int" name="NKREDY">     1</i>
   <i type="int" name="NKREDZ">     1</i>
   <i type="logical" name="SHIFTRED"> F  </i>
   <i type="logical" name="ODDONLY"> F  </i>
   <i type="logical" name="EVENONLY"> F  </i>
   <i type="int" name="LMAXFOCK">     0</i>
   <i type="int" name="NMAXFOCKAE">     0</i>
   <i type="logical" name="LFOCKAEDFT"> F  </i>
   <i name="HFSCREEN">      0.00000000</i>
   <i name="HFSCREENC">      0.00000000</i>
   <i type="int" name="NBANDSGWLOW">     0</i>
  </separator>
  <separator name="vdW DFT" >
   <i type="logical" name="LUSE_VDW"> F  </i>
   <i name="Zab_VDW">     -0.84910000</i>
   <i name="PARAM1">      0.12340000</i>
   <i name="PARAM2">      1.00000000</i>
   <i name="PARAM3">      0.00000000</i>
  </separator>
  <separator name="model GW" >
   <i type="int" name="MODEL_GW">     0</i>
   <i name="MODEL_EPS0">     16.23376705</i>
   <i name="MODEL_ALPHA">      1.00000000</i>
  </separator>
  <separator name="linear response parameters" >
   <i type="logical" name="LEPSILON"> F  </i>
   <i type="logical" name="LRPA"> F  </i>
   <i type="logical" name="LNABLA"> F  </i>
   <i type="logical" name="LVEL"> F  </i>
   <i type="int" name="KINTER">     0</i>
   <i name="CSHIFT">      0.10000000</i>
   <i name="OMEGAMAX">     -1.00000000</i>
   <i name="DEG_THRESHOLD">      0.00200000</i>
   <i name="RTIME">     -0.10000000</i>
   <i name="WPLASMAI">      0.00000000</i>
   <v name="DFIELD">      0.00000000      0.00000000      0.00000000</v>
   <v name="WPLASMA">      0.00000000      0.00000000      0.00000000      0.00000000      0.00000000      0.00000000      0.00000000      0.00000000      0.00000000</v>
  </separator>
  <separator name="orbital magnetization" >
   <i type="logical" name="NUCIND"> F  </i>
   <v name="MAGPOS">      0.00000000      0.00000000      0.00000000</v>
   <i type="logical" name="LNICSALL"> T  </i>
   <i type="logical" name="ORBITALMAG"> F  </i>
   <i type="logical" name="LMAGBLOCH"> F  </i>
   <i type="logical" name="LCHIMAG"> F  </i>
   <i type="logical" name="LGAUGE"> T  </i>
   <i type="int" name="MAGATOM">     0</i>
   <v name="MAGDIPOL">      0.00000000      0.00000000      0.00000000</v>
   <v name="AVECCONST">      0.00000000      0.00000000      0.00000000</v>
  </separator>
  <separator name="response functions" >
   <i type="logical" name="LADDER"> F  </i>
   <i type="logical" name="LRPAFORCE"> F  </i>
   <i type="logical" name="LFXC"> F  </i>
   <i type="logical" name="LHARTREE"> T  </i>
   <i type="int" name="IBSE">     0</i>
   <v type="int" name="KPOINT">    -1     0     0     0</v>
   <i type="logical" name="LTCTE"> F  </i>
   <i type="logical" name="LTETE"> F  </i>
   <i type="logical" name="LTRIPLET"> F  </i>
   <i type="logical" name="LFXCEPS"> F  </i>
   <i type="logical" name="LFXHEG"> F  </i>
   <i type="int" name="NATURALO">     2</i>
   <i type="logical" name="L2ORDER"> F  </i>
   <i type="logical" name="LMP2LT"> F  </i>
   <i type="logical" name="LUSEW"> F  </i>
   <i name="ENCUTGW">     -2.00000000</i>
   <i name="ENCUTGWSOFT">     -2.00000000</i>
   <i name="ENCUTLF">     -1.00000000</i>
   <i type="int" name="LMAXMP2">    -1</i>
   <i name="SCISSOR">      0.00000000</i>
   <i type="int" name="NOMEGA">     0</i>
   <i type="int" name="NOMEGAR">     0</i>
   <i type="int" name="NBANDSGW">    -1</i>
   <i type="int" name="NBANDSO">    -1</i>
   <i type="int" name="NBANDSV">    -1</i>
   <i type="int" name="NELM">   100</i>
   <i type="int" name="NELMHF">     1</i>
   <i type="int" name="DIM">     3</i>
   <i type="int" name="ANTIRES">     0</i>
   <i name="OMEGAMAX">    -30.00000000</i>
   <i name="OMEGAMIN">    -30.00000000</i>
   <i name="OMEGATL">   -200.00000000</i>
   <i type="int" name="OMEGAGRID">   140</i>
   <i name="CSHIFT">     -0.10000000</i>
   <i type="logical" name="SELFENERGY"> F  </i>
   <i type="logical" name="LSPECTRAL"> F  </i>
   <i type="logical" name="LSPECTRALGW"> F  </i>
   <i type="logical" name="LSINGLES"> F  </i>
   <i type="logical" name="LFERMIGW"> F  </i>
   <i type="logical" name="ODDONLYGW"> F  </i>
   <i type="logical" name="EVENONLYGW"> F  </i>
   <i type="int" name="NKREDLFX">     1</i>
   <i type="int" name="NKREDLFY">     1</i>
   <i type="int" name="NKREDLFZ">     1</i>
   <i type="int" name="MAXMEM">  2800</i>
   <i type="int" name="TELESCOPE">     0</i>
   <i type="int" name="TAUPAR">     1</i>
   <i type="int" name="OMEGAPAR">    -1</i>
   <i name="LAMBDA">      1.00000000</i>
  </separator>
  <separator name="External order field" >
   <i name="OFIELD_KAPPA">      0.00000000</i>
   <v name="OFIELD_K">      0.00000000      0.00000000      0.00000000</v>
   <i name="OFIELD_Q6_NEAR">      0.00000000</i>
   <i name="OFIELD_Q6_FAR">      0.00000000</i>
   <i name="OFIELD_A">      0.00000000</i>
  </separator>
 </parameters>
 <atominfo>
  <atoms>       9 </atoms>
  <types>       3 </types>
  <array name="atoms" >
   <dimension dim="1">ion</dimension>
   <field type="string">element</field>
   <field type="int">atomtype</field>
   <set>
    <rc><c>K </c><c>   1</c></rc>
    <rc><c>Sb</c><c>   2</c></rc>
    <rc><c>Sb</c><c>   2</c></rc>
    <rc><c>Sb</c><c>   2</c></rc>
    <rc><c>Sb</c><c>   2</c></rc>
    <rc><c>Sb</c><c>   2</c></rc>
    <rc><c>V </c><c>   3</c></rc>
    <rc><c>V </c><c>   3</c></rc>
    <rc><c>V </c><c>   3</c></rc>
   </set>
  </array>
  <array name="atomtypes" >
   <dimension dim="1">type</dimension>
   <field type="int">atomspertype</field>
   <field type="string">element</field>
   <field>mass</field>
   <field>valence</field>
   <field type="string">pseudopotential</field>
   <set>
    <rc><c>   1</c><c>K </c><c>     39.09800000</c><c>      9.00000000</c><c>  PAW_PBE K_sv 06Sep2000                </c></rc>
    <rc><c>   5</c><c>Sb</c><c>    121.75000000</c><c>      5.00000000</c><c>  PAW_PBE Sb 06Sep2000                  </c></rc>
    <rc><c>   3</c><c>V </c><c>     50.94100000</c><c>     13.00000000</c><c>  PAW_PBE V_sv 02Aug2007                </c></rc>
   </set>
  </array>
 </atominfo>
 <structure name="initialpos" >
  <crystal>
   <varray name="basis" >
    <v>       5.48042998       0.00000000       0.00000000 </v>
    <v>      -2.74021499       4.74619159       0.00000000 </v>
    <v>       0.00000000       0.00000000       9.36161269 </v>
   </varray>
   <i name="volume">    243.50650581 </i>
   <varray name="rec_basis" >
    <v>       0.18246743       0.10534762       0.00000000 </v>
    <v>       0.00000000       0.21069525       0.00000000 </v>
    <v>       0.00000000       0.00000000       0.10681920 </v>
   </varray>
  </crystal>
  <varray name="positions" >
   <v>       0.00000000       0.00000000       0.00000000 </v>
   <v>       0.00000000       0.00000000       0.50000000 </v>
   <v>       0.33333334       0.66666669       0.25612684 </v>
   <v>       0.66666663       0.33333331       0.74387316 </v>
   <v>       0.66666663       0.33333331       0.25612684 </v>
   <v>       0.33333334       0.66666669       0.74387316 </v>
   <v>       0.50000000       0.00000000       0.50000000 </v>
   <v>       0.00000000       0.50000000       0.50000000 </v>
   <v>       0.50000000       0.50000000       0.50000000 </v>
  </varray>
 </structure>
 <calculation>
  <scstep>
   <time name="dav">   11.87   11.91</time>
   <time name="total">   11.90   11.95</time>
   <energy>
    <i name="alphaZ">    107.99272766 </i>
    <i name="ewald">  -2728.52706727 </i>
    <i name="hartreedc">  -4102.14725526 </i>
    <i name="XCdc">     16.48301299 </i>
    <i name="pawpsdc">   7880.60019044 </i>
    <i name="pawaedc">  -7659.64122755 </i>
    <i name="eentropy">     -0.00049058 </i>
    <i name="bandstr">   -345.54836758 </i>
    <i name="atom">   7381.08375215 </i>
    <i name="e_fr_energy">    550.29527500 </i>
    <i name="e_wo_entrp">    550.29576558 </i>
    <i name="e_0_energy">    550.29552029 </i>
   </energy>
  </scstep>
  <scstep>
   <time name="dav">   11.77   11.82</time>
   <time name="total">   11.77   11.82</time>
   <energy>
    <i name="e_fr_energy">    -29.45674144 </i>
    <i name="e_wo_entrp">    -29.45644061 </i>
    <i name="e_0_energy">    -29.45659102 </i>
   </energy>
  </scstep>
  <scstep>
   <time name="dav">   12.92   12.96</time>
   <time name="total">   12.93   12.96</time>
   <energy>
    <i name="e_fr_energy">    -50.45835783 </i>
    <i name="e_wo_entrp">    -50.45746254 </i>
    <i name="e_0_energy">    -50.45791019 </i>
   </energy>
  </scstep>
  <scstep>
   <time name="dav">   15.20   15.24</time>
   <time name="total">   15.20   15.24</time>
   <energy>
    <i name="e_fr_energy">    -51.00623929 </i>
    <i name="e_wo_entrp">    -51.00551847 </i>
    <i name="e_0_energy">    -51.00587888 </i>
   </energy>
  </scstep>
  <scstep>
   <time name="dav">   13.01   13.06</time>
   <time name="total">   13.01   13.06</time>
   <energy>
    <i name="e_fr_energy">    -51.00837078 </i>
    <i name="e_wo_entrp">    -51.00765686 </i>
    <i name="e_0_energy">    -51.00801382 </i>
   </energy>
  </scstep>
  <scstep>
   <time name="dav">   13.93   13.97</time>
   <time name="total">   13.93   13.97</time>
   <energy>
    <i name="e_fr_energy">    -51.00845591 </i>
    <i name="e_wo_entrp">    -51.00774254 </i>
    <i name="e_0_energy">    -51.00809922 </i>
   </energy>
  </scstep>
  <scstep>
   <time name="dav">   14.25   14.30</time>
   <time name="total">   14.26   14.30</time>
   <energy>
    <i name="alphaZ">    107.99272766 </i>
    <i name="ewald">  -2728.52706727 </i>
    <i name="hartreedc">  -4102.14725526 </i>
    <i name="XCdc">     16.48301299 </i>
    <i name="pawpsdc">   7880.60019044 </i>
    <i name="pawaedc">  -7659.64122755 </i>
    <i name="eentropy">     -0.00071336 </i>
    <i name="bandstr">   -946.85187631 </i>
    <i name="atom">   7381.08375215 </i>
    <i name="e_fr_energy">    -51.00845651 </i>
    <i name="e_wo_entrp">    -51.00774315 </i>
    <i name="e_0_energy">    -51.00809983 </i>
   </energy>
  </scstep>
  <structure>
   <crystal>
    <varray name="basis" >
     <v>       5.48042998       0.00000000       0.00000000 </v>
     <v>      -2.74021499       4.74619159       0.00000000 </v>
     <v>       0.00000000       0.00000000       9.36161269 </v>
    </varray>
    <i name="volume">    243.50650581 </i>
    <varray name="rec_basis" >
     <v>       0.18246743       0.10534762       0.00000000 </v>
     <v>       0.00000000       0.21069525       0.00000000 </v>
     <v>       0.00000000       0.00000000       0.10681920 </v>
    </varray>
   </crystal>
   <varray name="positions" >
    <v>       0.00000000       0.00000000       0.00000000 </v>
    <v>       0.00000000       0.00000000       0.50000000 </v>
    <v>       0.33333334       0.66666669       0.25612684 </v>
    <v>       0.66666663       0.33333331       0.74387316 </v>
    <v>       0.66666663       0.33333331       0.25612684 </v>
    <v>       0.33333334       0.66666669       0.74387316 </v>
    <v>       0.50000000       0.00000000       0.50000000 </v>
    <v>       0.00000000       0.50000000       0.50000000 </v>
    <v>       0.50000000       0.50000000       0.50000000 </v>
   </varray>
  </structure>
  <varray name="forces" >
   <v>       0.00000000       0.00000000       0.00000000 </v>
   <v>       0.00000000       0.00000000       0.00000000 </v>
   <v>       0.00000000       0.00000000       0.00000000 </v>
   <v>       0.00000000       0.00000000       0.00000000 </v>
   <v>       0.00000000       0.00000000       0.00000000 </v>
   <v>       0.00000000       0.00000000       0.00000000 </v>
   <v>       0.00000000       0.00000000       0.00000000 </v>
   <v>       0.00000000       0.00000000       0.00000000 </v>
   <v>       0.00000000       0.00000000       0.00000000 </v>
  </varray>
  <varray name="stress" >
   <v>       0.00000000       0.00000000       0.00000000 </v>
   <v>       0.00000000       0.00000000       0.00000000 </v>
   <v>       0.00000000       0.00000000       0.00000000 </v>
  </varray>
  <energy>
   <i name="e_fr_energy">    -51.00845651 </i>
   <i name="e_wo_entrp">    -51.00809983 </i>
   <i name="e_0_energy">     -0.00071336 </i>
  </energy>
  <time name="totalsc">   93.63   93.93</time>
  <eigenvalues>
   <array>
    <dimension dim="1">band</dimension>
    <dimension dim="2">kpoint</dimension>
    <dimension dim="3">spin</dimension>
    <field>eigene</field>
    <field>occ</field>
    <set>
     <set comment="spin 1">
      <set comment="kpoint 1">
       <r>  -58.1756    1.0000 </r>
       <r>  -58.1074    1.0000 </r>
       <r>  -58.1073    1.0000 </r>
       <r>  -32.1648    1.0000 </r>
       <r>  -32.1634    1.0000 </r>
       <r>  -32.1191    1.0000 </r>
       <r>  -32.1191    1.0000 </r>
       <r>  -32.0946    1.0000 </r>
       <r>  -32.0946    1.0000 </r>
       <r>  -31.8877    1.0000 </r>
       <r>  -31.6831    1.0000 </r>
       <r>  -31.6831    1.0000 </r>
       <r>  -25.4415    1.0000 </r>
       <r>   -8.9481    1.0000 </r>
       <r>   -8.9073    1.0000 </r>
       <r>   -8.9073    1.0000 </r>
       <r>   -5.4535    1.0000 </r>
       <r>   -4.5288    1.0000 </r>
       <r>   -3.3553    1.0000 </r>
       <r>   -1.3794    1.0000 </r>
       <r>   -1.0860    1.0000 </r>
       <r>    1.5234    1.0000 </r>
       <r>    2.2859    1.0000 </r>
       <r>    2.2859    1.0000 </r>
       <r>    3.2202    1.0000 </r>
       <r>    3.2202    1.0000 </r>
       <r>    3.2519    1.0000 </r>
       <r>    3.2520    1.0000 </r>
       <r>    3.3845    1.0000 </r>
       <r>    4.1554    1.0000 </r>
       <r>    4.1554    1.0000 </r>
       <r>    4.1957    1.0000 </r>
       <r>    4.2504    1.0000 </r>
       <r>    4.5912    1.0000 </r>
       <r>    4.5912    1.0000 </r>
       <r>    5.1863    1.0000 </r>
       <r>    5.7193    1.0000 </r>
       <r>    7.0738    0.0000 </r>
       <r>    7.0739    0.0000 </r>
       <r>    7.1283    0.0000 </r>
       <r>    7.2318    0.0000 </r>
       <r>    7.2318    0.0000 </r>
       <r>    7.4484    0.0000 </r>
       <r>    7.4485    0.0000 </r>
       <r>    7.4812    0.0000 </r>
       <r>    7.5651    0.0000 </r>
       <r>    7.5652    0.0000 </r>
       <r>    7.8955    0.0000 </r>
       <r>    7.8955    0.0000 </r>
       <r>    8.7739    0.0000 </r>
       <r>    8.8282    0.0000 </r>
       <r>    9.9354    0.0000 </r>
       <r>   10.5733    0.0000 </r>
       <r>   10.6498    0.0000 </r>
       <r>   10.6498    0.0000 </r>
       <r>   12.0811    0.0000 </r>
       <r>   12.4518    0.0000 </r>
       <r>   12.4522    0.0000 </r>
       <r>   12.4769    0.0000 </r>
       <r>   12.4840    0.0000 </r>
      </set>
      <set comment="kpoint 2">
       <r>  -58.1755    1.0000 </r>
       <r>  -58.1075    1.0000 </r>
       <r>  -58.1074    1.0000 </r>
       <r>  -32.1642    1.0000 </r>
       <r>  -32.1633    1.0000 </r>
       <r>  -32.1190    1.0000 </r>
       <r>  -32.1187    1.0000 </r>
       <r>  -32.0947    1.0000 </r>
       <r>  -32.0946    1.0000 </r>
       <r>  -31.8880    1.0000 </r>
       <r>  -31.6839    1.0000 </r>
       <r>  -31.6832    1.0000 </r>
       <r>  -25.4415    1.0000 </r>
       <r>   -8.9481    1.0000 </r>
       <r>   -8.9074    1.0000 </r>
       <r>   -8.9073    1.0000 </r>
       <r>   -5.4492    1.0000 </r>
       <r>   -4.5256    1.0000 </r>
       <r>   -3.3542    1.0000 </r>
       <r>   -1.3878    1.0000 </r>
       <r>   -1.1006    1.0000 </r>
       <r>    1.5236    1.0000 </r>
       <r>    2.2720    1.0000 </r>
       <r>    2.2888    1.0000 </r>
       <r>    3.2077    1.0000 </r>
       <r>    3.2121    1.0000 </r>
       <r>    3.2623    1.0000 </r>
       <r>    3.2640    1.0000 </r>
       <r>    3.3834    1.0000 </r>
       <r>    4.1515    1.0000 </r>
       <r>    4.1705    1.0000 </r>
       <r>    4.2058    1.0000 </r>
       <r>    4.2539    1.0000 </r>
       <r>    4.5890    1.0000 </r>
       <r>    4.5936    1.0000 </r>
       <r>    5.1769    1.0000 </r>
       <r>    5.7399    1.0000 </r>
       <r>    7.0735    0.0000 </r>
       <r>    7.0743    0.0000 </r>
       <r>    7.1260    0.0000 </r>
       <r>    7.2298    0.0000 </r>
       <r>    7.2305    0.0000 </r>
       <r>    7.3991    0.0000 </r>
       <r>    7.4257    0.0000 </r>
       <r>    7.4962    0.0000 </r>
       <r>    7.5945    0.0000 </r>
       <r>    7.5986    0.0000 </r>
       <r>    7.8989    0.0000 </r>
       <r>    7.9026    0.0000 </r>
       <r>    8.7800    0.0000 </r>
       <r>    8.8255    0.0000 </r>
       <r>    9.9614    0.0000 </r>
       <r>   10.5530    0.0000 </r>
       <r>   10.6523    0.0000 </r>
       <r>   10.6569    0.0000 </r>
       <r>   12.0526    0.0000 </r>
       <r>   12.3545    0.0000 </r>
       <r>   12.3677    0.0000 </r>
       <r>   12.4857    0.0000 </r>
       <r>   12.5789    0.0000 </r>
      </set>
      <set comment="kpoint 3">
       <r>  -58.1752    1.0000 </r>
       <r>  -58.1078    1.0000 </r>
       <r>  -58.1074    1.0000 </r>
       <r>  -32.1630    1.0000 </r>
       <r>  -32.1622    1.0000 </r>
       <r>  -32.1187    1.0000 </r>
       <r>  -32.1174    1.0000 </r>
       <r>  -32.0950    1.0000 </r>
       <r>  -32.0946    1.0000 </r>
       <r>  -31.8889    1.0000 </r>
       <r>  -31.6863    1.0000 </r>
       <r>  -31.6836    1.0000 </r>
       <r>  -25.4415    1.0000 </r>
       <r>   -8.9480    1.0000 </r>
       <r>   -8.9077    1.0000 </r>
       <r>   -8.9074    1.0000 </r>
       <r>   -5.4361    1.0000 </r>
       <r>   -4.5160    1.0000 </r>
       <r>   -3.3511    1.0000 </r>
       <r>   -1.4129    1.0000 </r>
       <r>   -1.1436    1.0000 </r>
       <r>    1.5239    1.0000 </r>
       <r>    2.2328    1.0000 </r>
       <r>    2.2978    1.0000 </r>
       <r>    3.1727    1.0000 </r>
       <r>    3.1854    1.0000 </r>
       <r>    3.2925    1.0000 </r>
       <r>    3.2972    1.0000 </r>
       <r>    3.3845    1.0000 </r>
       <r>    4.1338    1.0000 </r>
       <r>    4.2135    1.0000 </r>
       <r>    4.2419    1.0000 </r>
       <r>    4.2645    1.0000 </r>
       <r>    4.5823    1.0000 </r>
       <r>    4.6013    1.0000 </r>
       <r>    5.1498    1.0000 </r>
       <r>    5.7992    1.0000 </r>
       <r>    7.0685    0.0000 </r>
       <r>    7.0759    0.0000 </r>
       <r>    7.1183    0.0000 </r>
       <r>    7.2236    0.0000 </r>
       <r>    7.2268    0.0000 </r>
       <r>    7.3168    0.0000 </r>
       <r>    7.3881    0.0000 </r>
       <r>    7.5222    0.0000 </r>
       <r>    7.6413    0.0000 </r>
       <r>    7.6676    0.0000 </r>
       <r>    7.9091    0.0000 </r>
       <r>    7.9239    0.0000 </r>
       <r>    8.7984    0.0000 </r>
       <r>    8.8178    0.0000 </r>
       <r>   10.0365    0.0000 </r>
       <r>   10.4950    0.0000 </r>
       <r>   10.6596    0.0000 </r>
       <r>   10.6775    0.0000 </r>
       <r>   11.9784    0.0000 </r>
       <r>   12.2482    0.0000 </r>
       <r>   12.2996    0.0000 </r>
       <r>   12.4897    0.0000 </r>
       <r>   12.6916    0.0000 </r>
      </set>
      <set comment="kpoint 4">
       <r>  -58.1747    1.0000 </r>
       <r>  -58.1083    1.0000 </r>
       <r>  -58.1074    1.0000 </r>
       <r>  -32.1625    1.0000 </r>
       <r>  -32.1591    1.0000 </r>
       <r>  -32.1181    1.0000 </r>
       <r>  -32.1153    1.0000 </r>
       <r>  -32.0955    1.0000 </r>
       <r>  -32.0946    1.0000 </r>
       <r>  -31.8903    1.0000 </r>
       <r>  -31.6902    1.0000 </r>
       <r>  -31.6843    1.0000 </r>
       <r>  -25.4415    1.0000 </r>
       <r>   -8.9477    1.0000 </r>
       <r>   -8.9083    1.0000 </r>
       <r>   -8.9075    1.0000 </r>
       <r>   -5.4145    1.0000 </r>
       <r>   -4.5000    1.0000 </r>
       <r>   -3.3462    1.0000 </r>
       <r>   -1.4539    1.0000 </r>
       <r>   -1.2125    1.0000 </r>
       <r>    1.5228    1.0000 </r>
       <r>    2.1744    1.0000 </r>
       <r>    2.3137    1.0000 </r>
       <r>    3.1207    1.0000 </r>
       <r>    3.1376    1.0000 </r>
       <r>    3.3403    1.0000 </r>
       <r>    3.3445    1.0000 </r>
       <r>    3.3942    1.0000 </r>
       <r>    4.1046    1.0000 </r>
       <r>    4.2786    1.0000 </r>
       <r>    4.2819    1.0000 </r>
       <r>    4.3024    1.0000 </r>
       <r>    4.5700    1.0000 </r>
       <r>    4.6154    1.0000 </r>
       <r>    5.1079    1.0000 </r>
       <r>    5.8909    1.0000 </r>
       <r>    7.0433    0.0000 </r>
       <r>    7.0801    0.0000 </r>
       <r>    7.1041    0.0000 </r>
       <r>    7.2131    0.0000 </r>
       <r>    7.2223    0.0000 </r>
       <r>    7.2413    0.0000 </r>
       <r>    7.3547    0.0000 </r>
       <r>    7.5609    0.0000 </r>
       <r>    7.6837    0.0000 </r>
       <r>    7.7502    0.0000 </r>
       <r>    7.9266    0.0000 </r>
       <r>    7.9595    0.0000 </r>
       <r>    8.8060    0.0000 </r>
       <r>    8.8294    0.0000 </r>
       <r>   10.1530    0.0000 </r>
       <r>   10.4062    0.0000 </r>
       <r>   10.6720    0.0000 </r>
       <r>   10.7093    0.0000 </r>
       <r>   11.8824    0.0000 </r>
       <r>   12.1459    0.0000 </r>
       <r>   12.2565    0.0000 </r>
       <r>   12.4928    0.0000 </r>
       <r>   12.8069    0.0000 </r>
      </set>
      <set comment="kpoint 5">
       <r>  -58.1740    1.0000 </r>
       <r>  -58.1090    1.0000 </r>
       <r>  -58.1074    1.0000 </r>
       <r>  -32.1618    1.0000 </r>
       <r>  -32.1549    1.0000 </r>
       <r>  -32.1171    1.0000 </r>
       <r>  -32.1123    1.0000 </r>
       <r>  -32.0962    1.0000 </r>
       <r>  -32.0946    1.0000 </r>
       <r>  -31.8923    1.0000 </r>
       <r>  -31.6957    1.0000 </r>
       <r>  -31.6852    1.0000 </r>
       <r>  -25.4415    1.0000 </r>
       <r>   -8.9474    1.0000 </r>
       <r>   -8.9089    1.0000 </r>
       <r>   -8.9076    1.0000 </r>
       <r>   -5.3842    1.0000 </r>
       <r>   -4.4776    1.0000 </r>
       <r>   -3.3399    1.0000 </r>
       <r>   -1.5097    1.0000 </r>
       <r>   -1.3038    1.0000 </r>
       <r>    1.5188    1.0000 </r>
       <r>    2.1036    1.0000 </r>
       <r>    2.3372    1.0000 </r>
       <r>    3.0580    1.0000 </r>
       <r>    3.0719    1.0000 </r>
       <r>    3.3978    1.0000 </r>
       <r>    3.4024    1.0000 </r>
       <r>    3.4140    1.0000 </r>
       <r>    4.0696    1.0000 </r>
       <r>    4.3060    1.0000 </r>
       <r>    4.3596    1.0000 </r>
       <r>    4.3820    1.0000 </r>
       <r>    4.5510    1.0000 </r>
       <r>    4.6372    1.0000 </r>
       <r>    5.0560    1.0000 </r>
       <r>    6.0072    1.0000 </r>
       <r>    6.9768    0.0000 </r>
       <r>    7.0819    0.0000 </r>
       <r>    7.0885    0.0000 </r>
       <r>    7.1984    0.0000 </r>
       <r>    7.2001    0.0000 </r>
       <r>    7.2183    0.0000 </r>
       <r>    7.3282    0.0000 </r>
       <r>    7.6084    0.0000 </r>
       <r>    7.7248    0.0000 </r>
       <r>    7.8397    0.0000 </r>
       <r>    7.9519    0.0000 </r>
       <r>    8.0094    0.0000 </r>
       <r>    8.7918    0.0000 </r>
       <r>    8.8733    0.0000 </r>
       <r>   10.2957    0.0000 </r>
       <r>   10.3004    0.0000 </r>
       <r>   10.6896    0.0000 </r>
       <r>   10.7476    0.0000 </r>
       <r>   11.7860    0.0000 </r>
       <r>   12.0478    0.0000 </r>
       <r>   12.2330    0.0000 </r>
       <r>   12.4979    0.0000 </r>
       <r>   12.9216    0.0000 </r>
      </set>
      <set comment="kpoint 6">
       <r>  -58.1731    1.0000 </r>
       <r>  -58.1099    1.0000 </r>
       <r>  -58.1074    1.0000 </r>
       <r>  -32.1608    1.0000 </r>
       <r>  -32.1499    1.0000 </r>
       <r>  -32.1154    1.0000 </r>
       <r>  -32.1086    1.0000 </r>
       <r>  -32.0972    1.0000 </r>
       <r>  -32.0946    1.0000 </r>
       <r>  -31.8948    1.0000 </r>
       <r>  -31.7026    1.0000 </r>
       <r>  -31.6864    1.0000 </r>
       <r>  -25.4415    1.0000 </r>
       <r>   -8.9471    1.0000 </r>
       <r>   -8.9098    1.0000 </r>
       <r>   -8.9078    1.0000 </r>
       <r>   -5.3454    1.0000 </r>
       <r>   -4.4491    1.0000 </r>
       <r>   -3.3326    1.0000 </r>
       <r>   -1.5789    1.0000 </r>
       <r>   -1.4134    1.0000 </r>
       <r>    1.5110    1.0000 </r>
       <r>    2.0258    1.0000 </r>
       <r>    2.3685    1.0000 </r>
       <r>    2.9894    1.0000 </r>
       <r>    2.9943    1.0000 </r>
       <r>    3.4416    1.0000 </r>
       <r>    3.4501    1.0000 </r>
       <r>    3.4739    1.0000 </r>
       <r>    4.0333    1.0000 </r>
       <r>    4.3363    1.0000 </r>
       <r>    4.4515    1.0000 </r>
       <r>    4.4771    1.0000 </r>
       <r>    4.5237    1.0000 </r>
       <r>    4.6687    1.0000 </r>
       <r>    4.9999    1.0000 </r>
       <r>    6.1399    0.6245 </r>
       <r>    6.8790    0.0000 </r>
       <r>    7.0510    0.0000 </r>
       <r>    7.1025    0.0000 </r>
       <r>    7.1794    0.0000 </r>
       <r>    7.1870    0.0000 </r>
       <r>    7.2155    0.0000 </r>
       <r>    7.3081    0.0000 </r>
       <r>    7.6526    0.0000 </r>
       <r>    7.7773    0.0000 </r>
       <r>    7.9314    0.0000 </r>
       <r>    7.9856    0.0000 </r>
       <r>    8.0736    0.0000 </r>
       <r>    8.7779    0.0000 </r>
       <r>    8.9309    0.0000 </r>
       <r>   10.1723    0.0000 </r>
       <r>   10.4666    0.0000 </r>
       <r>   10.7126    0.0000 </r>
       <r>   10.7844    0.0000 </r>
       <r>   11.7075    0.0000 </r>
       <r>   11.9537    0.0000 </r>
       <r>   12.2220    0.0000 </r>
       <r>   12.5037    0.0000 </r>
       <r>   12.7935    0.0000 </r>
      </set>
      <set comment="kpoint 7">
       <r>  -58.1720    1.0000 </r>
       <r>  -58.1110    1.0000 </r>
       <r>  -58.1074    1.0000 </r>
       <r>  -32.1597    1.0000 </r>
       <r>  -32.1446    1.0000 </r>
       <r>  -32.1127    1.0000 </r>
       <r>  -32.1041    1.0000 </r>
       <r>  -32.0983    1.0000 </r>
       <r>  -32.0946    1.0000 </r>
       <r>  -31.8980    1.0000 </r>
       <r>  -31.7110    1.0000 </r>
       <r>  -31.6877    1.0000 </r>
       <r>  -25.4415    1.0000 </r>
       <r>   -8.9467    1.0000 </r>
       <r>   -8.9108    1.0000 </r>
       <r>   -8.9080    1.0000 </r>
       <r>   -5.2982    1.0000 </r>
       <r>   -4.4144    1.0000 </r>
       <r>   -3.3253    1.0000 </r>
       <r>   -1.6597    1.0000 </r>
       <r>   -1.5369    1.0000 </r>
       <r>    1.4992    1.0000 </r>
       <r>    1.9453    1.0000 </r>
       <r>    2.4072    1.0000 </r>
       <r>    2.9102    1.0000 </r>
       <r>    2.9187    1.0000 </r>
       <r>    3.4745    1.0000 </r>
       <r>    3.4960    1.0000 </r>
       <r>    3.5488    1.0000 </r>
       <r>    3.9981    1.0000 </r>
       <r>    4.3724    1.0000 </r>
       <r>    4.4870    1.0000 </r>
       <r>    4.5505    1.0000 </r>
       <r>    4.5854    1.0000 </r>
       <r>    4.7112    1.0000 </r>
       <r>    4.9457    1.0000 </r>
       <r>    6.2816    0.0000 </r>
       <r>    6.7729    0.0000 </r>
       <r>    7.0117    0.0000 </r>
       <r>    7.1230    0.0000 </r>
       <r>    7.1559    0.0000 </r>
       <r>    7.1821    0.0000 </r>
       <r>    7.2141    0.0000 </r>
       <r>    7.2933    0.0000 </r>
       <r>    7.6816    0.0000 </r>
       <r>    7.8534    0.0000 </r>
       <r>    8.0206    0.0000 </r>
       <r>    8.0283    0.0000 </r>
       <r>    8.1521    0.0000 </r>
       <r>    8.7681    0.0000 </r>
       <r>    9.0030    0.0000 </r>
       <r>   10.0433    0.0000 </r>
       <r>   10.6337    0.0000 </r>
       <r>   10.7415    0.0000 </r>
       <r>   10.8126    0.0000 </r>
       <r>   11.6629    0.0000 </r>
       <r>   11.8636    0.0000 </r>
       <r>   12.2153    0.0000 </r>
       <r>   12.5117    0.0000 </r>
       <r>   12.6049    0.0000 </r>
      </set>
      <set comment="kpoint 8">
       <r>  -58.1708    1.0000 </r>
       <r>  -58.1123    1.0000 </r>
       <r>  -58.1074    1.0000 </r>
       <r>  -32.1585    1.0000 </r>
       <r>  -32.1396    1.0000 </r>
       <r>  -32.1084    1.0000 </r>
       <r>  -32.0995    1.0000 </r>
       <r>  -32.0988    1.0000 </r>
       <r>  -32.0946    1.0000 </r>
       <r>  -31.9018    1.0000 </r>
       <r>  -31.7208    1.0000 </r>
       <r>  -31.6892    1.0000 </r>
       <r>  -25.4415    1.0000 </r>
       <r>   -8.9462    1.0000 </r>
       <r>   -8.9119    1.0000 </r>
       <r>   -8.9082    1.0000 </r>
       <r>   -5.2428    1.0000 </r>
       <r>   -4.3738    1.0000 </r>
       <r>   -3.3188    1.0000 </r>
       <r>   -1.7504    1.0000 </r>
       <r>   -1.6702    1.0000 </r>
       <r>    1.4838    1.0000 </r>
       <r>    1.8648    1.0000 </r>
       <r>    2.4526    1.0000 </r>
       <r>    2.8236    1.0000 </r>
       <r>    2.8484    1.0000 </r>
       <r>    3.5106    1.0000 </r>
       <r>    3.5325    1.0000 </r>
       <r>    3.6197    1.0000 </r>
       <r>    3.9656    1.0000 </r>
       <r>    4.4134    1.0000 </r>
       <r>    4.4422    1.0000 </r>
       <r>    4.6541    1.0000 </r>
       <r>    4.7049    1.0000 </r>
       <r>    4.7651    1.0000 </r>
       <r>    4.8989    1.0000 </r>
       <r>    6.4260    0.0000 </r>
       <r>    6.6704    0.0000 </r>
       <r>    6.9645    0.0000 </r>
       <r>    7.1282    0.0000 </r>
       <r>    7.1497    0.0000 </r>
       <r>    7.1771    0.0000 </r>
       <r>    7.2138    0.0000 </r>
       <r>    7.2829    0.0000 </r>
       <r>    7.6976    0.0000 </r>
       <r>    7.9505    0.0000 </r>
       <r>    8.0798    0.0000 </r>
       <r>    8.1017    0.0000 </r>
       <r>    8.2447    0.0000 </r>
       <r>    8.7672    0.0000 </r>
       <r>    9.0901    0.0000 </r>
       <r>    9.9148    0.0000 </r>
       <r>   10.7316    0.0000 </r>
       <r>   10.7764    0.0000 </r>
       <r>   10.8792    0.0000 </r>
       <r>   11.6588    0.0000 </r>
       <r>   11.7769    0.0000 </r>
       <r>   12.2028    0.0000 </r>
       <r>   12.4293    0.0000 </r>
       <r>   12.5265    0.0000 </r>
      </set>
      <set comment="kpoint 9">
       <r>  -58.1694    1.0000 </r>
       <r>  -58.1137    1.0000 </r>
       <r>  -58.1074    1.0000 </r>
       <r>  -32.1570    1.0000 </r>
       <r>  -32.1356    1.0000 </r>
       <r>  -32.1018    1.0000 </r>
       <r>  -32.1010    1.0000 </r>
       <r>  -32.0946    1.0000 </r>
       <r>  -32.0929    1.0000 </r>
       <r>  -31.9061    1.0000 </r>
       <r>  -31.7318    1.0000 </r>
       <r>  -31.6907    1.0000 </r>
       <r>  -25.4414    1.0000 </r>
       <r>   -8.9457    1.0000 </r>
       <r>   -8.9131    1.0000 </r>
       <r>   -8.9084    1.0000 </r>
       <r>   -5.1794    1.0000 </r>
       <r>   -4.3276    1.0000 </r>
       <r>   -3.3145    1.0000 </r>
       <r>   -1.8492    1.0000 </r>
       <r>   -1.8090    1.0000 </r>
       <r>    1.4658    1.0000 </r>
       <r>    1.7864    1.0000 </r>
       <r>    2.5036    1.0000 </r>
       <r>    2.7376    1.0000 </r>
       <r>    2.7801    1.0000 </r>
       <r>    3.5482    1.0000 </r>
       <r>    3.5581    1.0000 </r>
       <r>    3.6775    1.0000 </r>
       <r>    3.9363    1.0000 </r>
       <r>    4.3925    1.0000 </r>
       <r>    4.4594    1.0000 </r>
       <r>    4.7603    1.0000 </r>
       <r>    4.8299    1.0000 </r>
       <r>    4.8341    1.0000 </r>
       <r>    4.8635    1.0000 </r>
       <r>    6.5676    0.0000 </r>
       <r>    6.5769    0.0000 </r>
       <r>    6.9102    0.0000 </r>
       <r>    7.0964    0.0000 </r>
       <r>    7.1692    0.0000 </r>
       <r>    7.1805    0.0000 </r>
       <r>    7.2141    0.0000 </r>
       <r>    7.2768    0.0000 </r>
       <r>    7.7071    0.0000 </r>
       <r>    8.0611    0.0000 </r>
       <r>    8.1390    0.0000 </r>
       <r>    8.1698    0.0000 </r>
       <r>    8.3507    0.0000 </r>
       <r>    8.7803    0.0000 </r>
       <r>    9.1925    0.0000 </r>
       <r>    9.7917    0.0000 </r>
       <r>   10.7049    0.0000 </r>
       <r>   10.8179    0.0000 </r>
       <r>   11.0263    0.0000 </r>
       <r>   11.6781    0.0000 </r>
       <r>   11.6932    0.0000 </r>
       <r>   12.1755    0.0000 </r>
       <r>   12.2915    0.0000 </r>
       <r>   12.5532    0.0000 </r>
      </set>
      <set comment="kpoint 10">
       <r>  -58.1678    1.0000 </r>
       <r>  -58.1153    1.0000 </r>
       <r>  -58.1074    1.0000 </r>
       <r>  -32.1555    1.0000 </r>
       <r>  -32.1327    1.0000 </r>
       <r>  -32.1025    1.0000 </r>
       <r>  -32.0946    1.0000 </r>
       <r>  -32.0930    1.0000 </r>
       <r>  -32.0864    1.0000 </r>
       <r>  -31.9110    1.0000 </r>
       <r>  -31.7439    1.0000 </r>
       <r>  -31.6923    1.0000 </r>
       <r>  -25.4414    1.0000 </r>
       <r>   -8.9452    1.0000 </r>
       <r>   -8.9144    1.0000 </r>
       <r>   -8.9087    1.0000 </r>
       <r>   -5.1080    1.0000 </r>
       <r>   -4.2760    1.0000 </r>
       <r>   -3.3143    1.0000 </r>
       <r>   -1.9541    1.0000 </r>
       <r>   -1.9492    1.0000 </r>
       <r>    1.4464    1.0000 </r>
       <r>    1.7118    1.0000 </r>
       <r>    2.5592    1.0000 </r>
       <r>    2.6546    1.0000 </r>
       <r>    2.7153    1.0000 </r>
       <r>    3.5734    1.0000 </r>
       <r>    3.5860    1.0000 </r>
       <r>    3.7123    1.0000 </r>
       <r>    3.9106    1.0000 </r>
       <r>    4.3453    1.0000 </r>
       <r>    4.5085    1.0000 </r>
       <r>    4.8419    1.0000 </r>
       <r>    4.8678    1.0000 </r>
       <r>    4.9038    1.0000 </r>
       <r>    4.9711    1.0000 </r>
       <r>    6.4949    0.0000 </r>
       <r>    6.7016    0.0000 </r>
       <r>    6.8496    0.0000 </r>
       <r>    7.0616    0.0000 </r>
       <r>    7.1580    0.0000 </r>
       <r>    7.2103    0.0000 </r>
       <r>    7.2148    0.0000 </r>
       <r>    7.2769    0.0000 </r>
       <r>    7.7151    0.0000 </r>
       <r>    8.1797    0.0000 </r>
       <r>    8.2035    0.0000 </r>
       <r>    8.2230    0.0000 </r>
       <r>    8.4698    0.0000 </r>
       <r>    8.8099    0.0000 </r>
       <r>    9.3093    0.0000 </r>
       <r>    9.6780    0.0000 </r>
       <r>   10.6332    0.0000 </r>
       <r>   10.8661    0.0000 </r>
       <r>   11.1667    0.0000 </r>
       <r>   11.6115    0.0000 </r>
       <r>   11.6791    0.0000 </r>
       <r>   12.1297    0.0000 </r>
       <r>   12.2321    0.0000 </r>
       <r>   12.5940    0.0000 </r>
      </set>
      <set comment="kpoint 11">
       <r>  -58.1662    1.0000 </r>
       <r>  -58.1170    1.0000 </r>
       <r>  -58.1074    1.0000 </r>
       <r>  -32.1538    1.0000 </r>
       <r>  -32.1308    1.0000 </r>
       <r>  -32.1043    1.0000 </r>
       <r>  -32.0946    1.0000 </r>
       <r>  -32.0821    1.0000 </r>
       <r>  -32.0793    1.0000 </r>
       <r>  -31.9165    1.0000 </r>
       <r>  -31.7572    1.0000 </r>
       <r>  -31.6939    1.0000 </r>
       <r>  -25.4414    1.0000 </r>
       <r>   -8.9446    1.0000 </r>
       <r>   -8.9156    1.0000 </r>
       <r>   -8.9089    1.0000 </r>
       <r>   -5.0291    1.0000 </r>
       <r>   -4.2194    1.0000 </r>
       <r>   -3.3205    1.0000 </r>
       <r>   -2.0866    1.0000 </r>
       <r>   -2.0633    1.0000 </r>
       <r>    1.4267    1.0000 </r>
       <r>    1.6420    1.0000 </r>
       <r>    2.5762    1.0000 </r>
       <r>    2.6183    1.0000 </r>
       <r>    2.6547    1.0000 </r>
       <r>    3.5797    1.0000 </r>
       <r>    3.6229    1.0000 </r>
       <r>    3.7164    1.0000 </r>
       <r>    3.8884    1.0000 </r>
       <r>    4.3051    1.0000 </r>
       <r>    4.5606    1.0000 </r>
       <r>    4.8357    1.0000 </r>
       <r>    4.9757    1.0000 </r>
       <r>    4.9841    1.0000 </r>
       <r>    5.1141    1.0000 </r>
       <r>    6.4248    0.0000 </r>
       <r>    6.7834    0.0000 </r>
       <r>    6.8215    0.0000 </r>
       <r>    7.0275    0.0000 </r>
       <r>    7.1440    0.0000 </r>
       <r>    7.2158    0.0000 </r>
       <r>    7.2298    0.0000 </r>
       <r>    7.2887    0.0000 </r>
       <r>    7.7259    0.0000 </r>
       <r>    8.2647    0.0000 </r>
       <r>    8.2693    0.0000 </r>
       <r>    8.3027    0.0000 </r>
       <r>    8.6008    0.0000 </r>
       <r>    8.8541    0.0000 </r>
       <r>    9.4373    0.0000 </r>
       <r>    9.5766    0.0000 </r>
       <r>   10.5410    0.0000 </r>
       <r>   10.9212    0.0000 </r>
       <r>   11.2546    0.0000 </r>
       <r>   11.5306    0.0000 </r>
       <r>   11.6542    0.0000 </r>
       <r>   12.0685    0.0000 </r>
       <r>   12.2694    0.0000 </r>
       <r>   12.6456    0.0000 </r>
      </set>
      <set comment="kpoint 12">
       <r>  -58.1644    1.0000 </r>
       <r>  -58.1188    1.0000 </r>
       <r>  -58.1074    1.0000 </r>
       <r>  -32.1520    1.0000 </r>
       <r>  -32.1296    1.0000 </r>
       <r>  -32.1061    1.0000 </r>
       <r>  -32.0946    1.0000 </r>
       <r>  -32.0717    1.0000 </r>
       <r>  -32.0697    1.0000 </r>
       <r>  -31.9225    1.0000 </r>
       <r>  -31.7713    1.0000 </r>
       <r>  -31.6954    1.0000 </r>
       <r>  -25.4414    1.0000 </r>
       <r>   -8.9441    1.0000 </r>
       <r>   -8.9169    1.0000 </r>
       <r>   -8.9092    1.0000 </r>
       <r>   -4.9430    1.0000 </r>
       <r>   -4.1584    1.0000 </r>
       <r>   -3.3362    1.0000 </r>
       <r>   -2.2166    1.0000 </r>
       <r>   -2.1749    1.0000 </r>
       <r>    1.4077    1.0000 </r>
       <r>    1.5778    1.0000 </r>
       <r>    2.5038    1.0000 </r>
       <r>    2.5992    1.0000 </r>
       <r>    2.6801    1.0000 </r>
       <r>    3.5791    1.0000 </r>
       <r>    3.6579    1.0000 </r>
       <r>    3.6897    1.0000 </r>
       <r>    3.8695    1.0000 </r>
       <r>    4.2712    1.0000 </r>
       <r>    4.6151    1.0000 </r>
       <r>    4.8452    1.0000 </r>
       <r>    5.0679    1.0000 </r>
       <r>    5.0830    1.0000 </r>
       <r>    5.2612    1.0000 </r>
       <r>    6.3655    0.0000 </r>
       <r>    6.7124    0.0000 </r>
       <r>    6.8998    0.0000 </r>
       <r>    7.0207    0.0000 </r>
       <r>    7.1280    0.0000 </r>
       <r>    7.2168    0.0000 </r>
       <r>    7.2360    0.0000 </r>
       <r>    7.3101    0.0000 </r>
       <r>    7.7435    0.0000 </r>
       <r>    8.3029    0.0000 </r>
       <r>    8.3311    0.0000 </r>
       <r>    8.4276    0.0000 </r>
       <r>    8.7426    0.0000 </r>
       <r>    8.9061    0.0000 </r>
       <r>    9.4896    0.0000 </r>
       <r>    9.5695    0.0000 </r>
       <r>   10.4370    0.0000 </r>
       <r>   10.9829    0.0000 </r>
       <r>   11.2519    0.0000 </r>
       <r>   11.4491    0.0000 </r>
       <r>   11.6590    0.0000 </r>
       <r>   11.9997    0.0000 </r>
       <r>   12.3689    0.0000 </r>
       <r>   12.6999    0.0000 </r>
      </set>
      <set comment="kpoint 13">
       <r>  -58.1626    1.0000 </r>
       <r>  -58.1206    1.0000 </r>
       <r>  -58.1075    1.0000 </r>
       <r>  -32.1501    1.0000 </r>
       <r>  -32.1287    1.0000 </r>
       <r>  -32.1079    1.0000 </r>
       <r>  -32.0946    1.0000 </r>
       <r>  -32.0638    1.0000 </r>
       <r>  -32.0562    1.0000 </r>
       <r>  -31.9290    1.0000 </r>
       <r>  -31.7861    1.0000 </r>
       <r>  -31.6969    1.0000 </r>
       <r>  -25.4414    1.0000 </r>
       <r>   -8.9436    1.0000 </r>
       <r>   -8.9180    1.0000 </r>
       <r>   -8.9094    1.0000 </r>
       <r>   -4.8499    1.0000 </r>
       <r>   -4.0939    1.0000 </r>
       <r>   -3.3648    1.0000 </r>
       <r>   -2.3345    1.0000 </r>
       <r>   -2.2868    1.0000 </r>
       <r>    1.3900    1.0000 </r>
       <r>    1.5200    1.0000 </r>
       <r>    2.4383    1.0000 </r>
       <r>    2.5492    1.0000 </r>
       <r>    2.7437    1.0000 </r>
       <r>    3.5738    1.0000 </r>
       <r>    3.6396    1.0000 </r>
       <r>    3.6901    1.0000 </r>
       <r>    3.8539    1.0000 </r>
       <r>    4.2385    1.0000 </r>
       <r>    4.6712    1.0000 </r>
       <r>    4.8685    1.0000 </r>
       <r>    5.1519    1.0000 </r>
       <r>    5.1892    1.0000 </r>
       <r>    5.4101    1.0000 </r>
       <r>    6.3151    0.0000 </r>
       <r>    6.6374    0.0000 </r>
       <r>    6.8864    0.0000 </r>
       <r>    7.0909    0.0000 </r>
       <r>    7.1108    0.0000 </r>
       <r>    7.2178    0.0000 </r>
       <r>    7.2364    0.0000 </r>
       <r>    7.3295    0.0000 </r>
       <r>    7.7715    0.0000 </r>
       <r>    8.3466    0.0000 </r>
       <r>    8.3836    0.0000 </r>
       <r>    8.5531    0.0000 </r>
       <r>    8.8937    0.0000 </r>
       <r>    8.9583    0.0000 </r>
       <r>    9.4170    0.0000 </r>
       <r>    9.6924    0.0000 </r>
       <r>   10.3256    0.0000 </r>
       <r>   11.0503    0.0000 </r>
       <r>   11.1940    0.0000 </r>
       <r>   11.3652    0.0000 </r>
       <r>   11.6876    0.0000 </r>
       <r>   11.9337    0.0000 </r>
       <r>   12.5006    0.0000 </r>
       <r>   12.7442    0.0000 </r>
      </set>
      <set comment="kpoint 14">
       <r>  -58.1607    1.0000 </r>
       <r>  -58.1225    1.0000 </r>
       <r>  -58.1075    1.0000 </r>
       <r>  -32.1482    1.0000 </r>
       <r>  -32.1281    1.0000 </r>
       <r>  -32.1098    1.0000 </r>
       <r>  -32.0946    1.0000 </r>
       <r>  -32.0555    1.0000 </r>
       <r>  -32.0418    1.0000 </r>
       <r>  -31.9359    1.0000 </r>
       <r>  -31.8015    1.0000 </r>
       <r>  -31.6982    1.0000 </r>
       <r>  -25.4413    1.0000 </r>
       <r>   -8.9432    1.0000 </r>
       <r>   -8.9191    1.0000 </r>
       <r>   -8.9096    1.0000 </r>
       <r>   -4.7505    1.0000 </r>
       <r>   -4.0268    1.0000 </r>
       <r>   -3.4099    1.0000 </r>
       <r>   -2.4356    1.0000 </r>
       <r>   -2.3969    1.0000 </r>
       <r>    1.3742    1.0000 </r>
       <r>    1.4691    1.0000 </r>
       <r>    2.3805    1.0000 </r>
       <r>    2.5052    1.0000 </r>
       <r>    2.8083    1.0000 </r>
       <r>    3.5655    1.0000 </r>
       <r>    3.5759    1.0000 </r>
       <r>    3.7189    1.0000 </r>
       <r>    3.8415    1.0000 </r>
       <r>    4.2032    1.0000 </r>
       <r>    4.7269    1.0000 </r>
       <r>    4.9018    1.0000 </r>
       <r>    5.2333    1.0000 </r>
       <r>    5.2935    1.0000 </r>
       <r>    5.5585    1.0000 </r>
       <r>    6.2710    0.0000 </r>
       <r>    6.5593    0.0000 </r>
       <r>    6.8364    0.0000 </r>
       <r>    7.0935    0.0000 </r>
       <r>    7.1832    0.0000 </r>
       <r>    7.2188    0.0000 </r>
       <r>    7.2352    0.0000 </r>
       <r>    7.3399    0.0000 </r>
       <r>    7.8123    0.0000 </r>
       <r>    8.4021    0.0000 </r>
       <r>    8.4235    0.0000 </r>
       <r>    8.6786    0.0000 </r>
       <r>    9.0035    0.0000 </r>
       <r>    9.0519    0.0000 </r>
       <r>    9.3565    0.0000 </r>
       <r>    9.7847    0.0000 </r>
       <r>   10.2094    0.0000 </r>
       <r>   11.1218    0.0000 </r>
       <r>   11.1525    0.0000 </r>
       <r>   11.2770    0.0000 </r>
       <r>   11.6983    0.0000 </r>
       <r>   11.8810    0.0000 </r>
       <r>   12.6510    0.0000 </r>
       <r>   12.6784    0.0000 </r>
      </set>
      <set comment="kpoint 15">
       <r>  -58.1588    1.0000 </r>
       <r>  -58.1244    1.0000 </r>
       <r>  -58.1075    1.0000 </r>
       <r>  -32.1463    1.0000 </r>
       <r>  -32.1277    1.0000 </r>
       <r>  -32.1117    1.0000 </r>
       <r>  -32.0946    1.0000 </r>
       <r>  -32.0471    1.0000 </r>
       <r>  -32.0270    1.0000 </r>
       <r>  -31.9430    1.0000 </r>
       <r>  -31.8172    1.0000 </r>
       <r>  -31.6994    1.0000 </r>
       <r>  -25.4413    1.0000 </r>
       <r>   -8.9428    1.0000 </r>
       <r>   -8.9201    1.0000 </r>
       <r>   -8.9098    1.0000 </r>
       <r>   -4.6455    1.0000 </r>
       <r>   -3.9589    1.0000 </r>
       <r>   -3.4736    1.0000 </r>
       <r>   -2.5169    1.0000 </r>
       <r>   -2.5028    1.0000 </r>
       <r>    1.3608    1.0000 </r>
       <r>    1.4253    1.0000 </r>
       <r>    2.3309    1.0000 </r>
       <r>    2.4675    1.0000 </r>
       <r>    2.8732    1.0000 </r>
       <r>    3.5065    1.0000 </r>
       <r>    3.5559    1.0000 </r>
       <r>    3.7432    1.0000 </r>
       <r>    3.8324    1.0000 </r>
       <r>    4.1648    1.0000 </r>
       <r>    4.7793    1.0000 </r>
       <r>    4.9408    1.0000 </r>
       <r>    5.3090    1.0000 </r>
       <r>    5.3952    1.0000 </r>
       <r>    5.7043    1.0000 </r>
       <r>    6.2313    0.0000 </r>
       <r>    6.4792    0.0000 </r>
       <r>    6.7753    0.0000 </r>
       <r>    7.0769    0.0000 </r>
       <r>    7.2196    0.0000 </r>
       <r>    7.2336    0.0000 </r>
       <r>    7.2717    0.0000 </r>
       <r>    7.3400    0.0000 </r>
       <r>    7.8668    0.0000 </r>
       <r>    8.4506    0.0000 </r>
       <r>    8.4714    0.0000 </r>
       <r>    8.8040    0.0000 </r>
       <r>    9.0363    0.0000 </r>
       <r>    9.2141    0.0000 </r>
       <r>    9.3035    0.0000 </r>
       <r>    9.8226    0.0000 </r>
       <r>   10.0908    0.0000 </r>
       <r>   11.1727    0.0000 </r>
       <r>   11.1829    0.0000 </r>
       <r>   11.1947    0.0000 </r>
       <r>   11.6833    0.0000 </r>
       <r>   11.8506    0.0000 </r>
       <r>   12.5663    0.0000 </r>
       <r>   12.7329    0.0000 </r>
      </set>
      <set comment="kpoint 16">
       <r>  -58.1571    1.0000 </r>
       <r>  -58.1262    1.0000 </r>
       <r>  -58.1075    1.0000 </r>
       <r>  -32.1445    1.0000 </r>
       <r>  -32.1274    1.0000 </r>
       <r>  -32.1135    1.0000 </r>
       <r>  -32.0946    1.0000 </r>
       <r>  -32.0388    1.0000 </r>
       <r>  -32.0121    1.0000 </r>
       <r>  -31.9503    1.0000 </r>
       <r>  -31.8327    1.0000 </r>
       <r>  -31.7004    1.0000 </r>
       <r>  -25.4413    1.0000 </r>
       <r>   -8.9424    1.0000 </r>
       <r>   -8.9209    1.0000 </r>
       <r>   -8.9100    1.0000 </r>
       <r>   -4.5357    1.0000 </r>
       <r>   -3.8925    1.0000 </r>
       <r>   -3.5553    1.0000 </r>
       <r>   -2.6013    1.0000 </r>
       <r>   -2.5776    1.0000 </r>
       <r>    1.3498    1.0000 </r>
       <r>    1.3892    1.0000 </r>
       <r>    2.2899    1.0000 </r>
       <r>    2.4363    1.0000 </r>
       <r>    2.9376    1.0000 </r>
       <r>    3.4369    1.0000 </r>
       <r>    3.5465    1.0000 </r>
       <r>    3.7619    1.0000 </r>
       <r>    3.8270    1.0000 </r>
       <r>    4.1258    1.0000 </r>
       <r>    4.8253    1.0000 </r>
       <r>    4.9814    1.0000 </r>
       <r>    5.3763    1.0000 </r>
       <r>    5.4929    1.0000 </r>
       <r>    5.8451    1.0000 </r>
       <r>    6.1949    0.0000 </r>
       <r>    6.3986    0.0000 </r>
       <r>    6.7065    0.0000 </r>
       <r>    7.0619    0.0000 </r>
       <r>    7.2203    0.0000 </r>
       <r>    7.2318    0.0000 </r>
       <r>    7.3320    0.0000 </r>
       <r>    7.3518    0.0000 </r>
       <r>    7.9324    0.0000 </r>
       <r>    8.4680    0.0000 </r>
       <r>    8.5527    0.0000 </r>
       <r>    8.9297    0.0000 </r>
       <r>    9.0528    0.0000 </r>
       <r>    9.2535    0.0000 </r>
       <r>    9.3761    0.0000 </r>
       <r>    9.7976    0.0000 </r>
       <r>    9.9726    0.0000 </r>
       <r>   11.0827    0.0000 </r>
       <r>   11.2650    0.0000 </r>
       <r>   11.2679    0.0000 </r>
       <r>   11.6569    0.0000 </r>
       <r>   11.8476    0.0000 </r>
       <r>   12.4643    0.0000 </r>
       <r>   12.6669    0.0000 </r>
      </set>
      <set comment="kpoint 17">
       <r>  -58.1555    1.0000 </r>
       <r>  -58.1278    1.0000 </r>
       <r>  -58.1075    1.0000 </r>
       <r>  -32.1429    1.0000 </r>
       <r>  -32.1272    1.0000 </r>
       <r>  -32.1151    1.0000 </r>
       <r>  -32.0946    1.0000 </r>
       <r>  -32.0308    1.0000 </r>
       <r>  -31.9978    1.0000 </r>
       <r>  -31.9575    1.0000 </r>
       <r>  -31.8474    1.0000 </r>
       <r>  -31.7012    1.0000 </r>
       <r>  -25.4413    1.0000 </r>
       <r>   -8.9421    1.0000 </r>
       <r>   -8.9216    1.0000 </r>
       <r>   -8.9101    1.0000 </r>
       <r>   -4.4229    1.0000 </r>
       <r>   -3.8311    1.0000 </r>
       <r>   -3.6514    1.0000 </r>
       <r>   -2.6882    1.0000 </r>
       <r>   -2.6197    1.0000 </r>
       <r>    1.3413    1.0000 </r>
       <r>    1.3608    1.0000 </r>
       <r>    2.2577    1.0000 </r>
       <r>    2.4119    1.0000 </r>
       <r>    3.0007    1.0000 </r>
       <r>    3.3698    1.0000 </r>
       <r>    3.5381    1.0000 </r>
       <r>    3.7741    1.0000 </r>
       <r>    3.8259    1.0000 </r>
       <r>    4.0897    1.0000 </r>
       <r>    4.8622    1.0000 </r>
       <r>    5.0199    1.0000 </r>
       <r>    5.4324    1.0000 </r>
       <r>    5.5844    1.0000 </r>
       <r>    5.9789    1.0000 </r>
       <r>    6.1626    0.0019 </r>
       <r>    6.3202    0.0000 </r>
       <r>    6.6310    0.0000 </r>
       <r>    7.0493    0.0000 </r>
       <r>    7.2209    0.0000 </r>
       <r>    7.2301    0.0000 </r>
       <r>    7.3198    0.0000 </r>
       <r>    7.4204    0.0000 </r>
       <r>    8.0033    0.0000 </r>
       <r>    8.4795    0.0000 </r>
       <r>    8.6408    0.0000 </r>
       <r>    9.0509    0.0000 </r>
       <r>    9.0553    0.0000 </r>
       <r>    9.2050    0.0000 </r>
       <r>    9.5308    0.0000 </r>
       <r>    9.7282    0.0000 </r>
       <r>    9.8555    0.0000 </r>
       <r>   10.9794    0.0000 </r>
       <r>   11.3274    0.0000 </r>
       <r>   11.4086    0.0000 </r>
       <r>   11.6504    0.0000 </r>
       <r>   11.8722    0.0000 </r>
       <r>   12.3771    0.0000 </r>
       <r>   12.5768    0.0000 </r>
      </set>
      <set comment="kpoint 18">
       <r>  -58.1542    1.0000 </r>
       <r>  -58.1291    1.0000 </r>
       <r>  -58.1075    1.0000 </r>
       <r>  -32.1416    1.0000 </r>
       <r>  -32.1271    1.0000 </r>
       <r>  -32.1164    1.0000 </r>
       <r>  -32.0946    1.0000 </r>
       <r>  -32.0237    1.0000 </r>
       <r>  -31.9852    1.0000 </r>
       <r>  -31.9640    1.0000 </r>
       <r>  -31.8604    1.0000 </r>
       <r>  -31.7018    1.0000 </r>
       <r>  -25.4413    1.0000 </r>
       <r>   -8.9419    1.0000 </r>
       <r>   -8.9221    1.0000 </r>
       <r>   -8.9102    1.0000 </r>
       <r>   -4.3105    1.0000 </r>
       <r>   -3.7797    1.0000 </r>
       <r>   -3.7552    1.0000 </r>
       <r>   -2.7581    1.0000 </r>
       <r>   -2.6464    1.0000 </r>
       <r>    1.3353    1.0000 </r>
       <r>    1.3404    1.0000 </r>
       <r>    2.2346    1.0000 </r>
       <r>    2.3943    1.0000 </r>
       <r>    3.0618    1.0000 </r>
       <r>    3.3065    1.0000 </r>
       <r>    3.5316    1.0000 </r>
       <r>    3.7801    1.0000 </r>
       <r>    3.8282    1.0000 </r>
       <r>    4.0604    1.0000 </r>
       <r>    4.8889    1.0000 </r>
       <r>    5.0520    1.0000 </r>
       <r>    5.4746    1.0000 </r>
       <r>    5.6651    1.0000 </r>
       <r>    6.1033    1.0000 </r>
       <r>    6.1364    0.7901 </r>
       <r>    6.2486    0.0000 </r>
       <r>    6.5495    0.0000 </r>
       <r>    7.0397    0.0000 </r>
       <r>    7.2213    0.0000 </r>
       <r>    7.2284    0.0000 </r>
       <r>    7.3075    0.0000 </r>
       <r>    7.4736    0.0000 </r>
       <r>    8.0695    0.0000 </r>
       <r>    8.4884    0.0000 </r>
       <r>    8.7289    0.0000 </r>
       <r>    9.0305    0.0000 </r>
       <r>    9.1612    0.0000 </r>
       <r>    9.1797    0.0000 </r>
       <r>    9.6455    0.0000 </r>
       <r>    9.6670    0.0000 </r>
       <r>    9.7401    0.0000 </r>
       <r>   10.8814    0.0000 </r>
       <r>   11.3765    0.0000 </r>
       <r>   11.4914    0.0000 </r>
       <r>   11.7541    0.0000 </r>
       <r>   11.9180    0.0000 </r>
       <r>   12.3126    0.0000 </r>
       <r>   12.4769    0.0000 </r>
      </set>
      <set comment="kpoint 19">
       <r>  -58.1533    1.0000 </r>
       <r>  -58.1300    1.0000 </r>
       <r>  -58.1075    1.0000 </r>
       <r>  -32.1407    1.0000 </r>
       <r>  -32.1270    1.0000 </r>
       <r>  -32.1173    1.0000 </r>
       <r>  -32.0946    1.0000 </r>
       <r>  -32.0184    1.0000 </r>
       <r>  -31.9759    1.0000 </r>
       <r>  -31.9689    1.0000 </r>
       <r>  -31.8698    1.0000 </r>
       <r>  -31.7021    1.0000 </r>
       <r>  -25.4413    1.0000 </r>
       <r>   -8.9418    1.0000 </r>
       <r>   -8.9224    1.0000 </r>
       <r>   -8.9103    1.0000 </r>
       <r>   -4.2085    1.0000 </r>
       <r>   -3.8534    1.0000 </r>
       <r>   -3.7447    1.0000 </r>
       <r>   -2.8044    1.0000 </r>
       <r>   -2.6610    1.0000 </r>
       <r>    1.3281    1.0000 </r>
       <r>    1.3317    1.0000 </r>
       <r>    2.2207    1.0000 </r>
       <r>    2.3838    1.0000 </r>
       <r>    3.1198    1.0000 </r>
       <r>    3.2476    1.0000 </r>
       <r>    3.5275    1.0000 </r>
       <r>    3.7822    1.0000 </r>
       <r>    3.8312    1.0000 </r>
       <r>    4.0412    1.0000 </r>
       <r>    4.9049    1.0000 </r>
       <r>    5.0735    1.0000 </r>
       <r>    5.5010    1.0000 </r>
       <r>    5.7254    1.0000 </r>
       <r>    6.1191    0.9994 </r>
       <r>    6.1936    0.0000 </r>
       <r>    6.2132    0.0000 </r>
       <r>    6.4658    0.0000 </r>
       <r>    7.0337    0.0000 </r>
       <r>    7.2216    0.0000 </r>
       <r>    7.2272    0.0000 </r>
       <r>    7.2988    0.0000 </r>
       <r>    7.5076    0.0000 </r>
[...]
       <r>    3.3070    1.0000 </r>
       <r>    3.3568    1.0000 </r>
       <r>    3.4517    1.0000 </r>
       <r>    3.5420    1.0000 </r>
       <r>    3.5465    1.0000 </r>
       <r>    4.2749    1.0000 </r>
       <r>    5.0149    1.0000 </r>
       <r>    5.1706    1.0000 </r>
       <r>    5.5129    1.0000 </r>
       <r>    5.7418    1.0000 </r>
       <r>    6.0295    1.0000 </r>
       <r>    6.1429    0.4588 </r>
       <r>    6.1471    0.2389 </r>
       <r>    6.3506    0.0000 </r>
       <r>    7.0752    0.0000 </r>
       <r>    7.2205    0.0000 </r>
       <r>    7.2715    0.0000 </r>
       <r>    7.3084    0.0000 </r>
       <r>    7.3458    0.0000 </r>
       <r>    7.6650    0.0000 </r>
       <r>    8.2740    0.0000 </r>
       <r>    8.8992    0.0000 </r>
       <r>    8.9829    0.0000 </r>
       <r>    9.0253    0.0000 </r>
       <r>    9.5251    0.0000 </r>
       <r>   10.3521    0.0000 </r>
       <r>   10.4969    0.0000 </r>
       <r>   10.5022    0.0000 </r>
       <r>   10.5406    0.0000 </r>
       <r>   11.2511    0.0000 </r>
       <r>   11.2733    0.0000 </r>
       <r>   11.5277    0.0000 </r>
       <r>   11.9912    0.0000 </r>
       <r>   12.3886    0.0000 </r>
       <r>   12.4780    0.0000 </r>
      </set>
      <set comment="kpoint 160">
       <r>  -58.1530    1.0000 </r>
       <r>  -58.1303    1.0000 </r>
       <r>  -58.1075    1.0000 </r>
       <r>  -32.1404    1.0000 </r>
       <r>  -32.1269    1.0000 </r>
       <r>  -32.1176    1.0000 </r>
       <r>  -32.0946    1.0000 </r>
       <r>  -32.0164    1.0000 </r>
       <r>  -31.9724    1.0000 </r>
       <r>  -31.9708    1.0000 </r>
       <r>  -31.8734    1.0000 </r>
       <r>  -31.7023    1.0000 </r>
       <r>  -25.4413    1.0000 </r>
       <r>   -8.9418    1.0000 </r>
       <r>   -8.9224    1.0000 </r>
       <r>   -8.9103    1.0000 </r>
       <r>   -4.1294    1.0000 </r>
       <r>   -3.8922    1.0000 </r>
       <r>   -3.7703    1.0000 </r>
       <r>   -2.8827    1.0000 </r>
       <r>   -2.6177    1.0000 </r>
       <r>    1.3327    1.0000 </r>
       <r>    1.4543    1.0000 </r>
       <r>    2.1564    1.0000 </r>
       <r>    2.3533    1.0000 </r>
       <r>    3.3207    1.0000 </r>
       <r>    3.3413    1.0000 </r>
       <r>    3.4572    1.0000 </r>
       <r>    3.5365    1.0000 </r>
       <r>    3.5466    1.0000 </r>
       <r>    4.2762    1.0000 </r>
       <r>    5.0152    1.0000 </r>
       <r>    5.1716    1.0000 </r>
       <r>    5.5129    1.0000 </r>
       <r>    5.7418    1.0000 </r>
       <r>    6.0281    1.0000 </r>
       <r>    6.1427    0.4694 </r>
       <r>    6.1454    0.3215 </r>
       <r>    6.3527    0.0000 </r>
       <r>    7.0755    0.0000 </r>
       <r>    7.2205    0.0000 </r>
       <r>    7.2716    0.0000 </r>
       <r>    7.3047    0.0000 </r>
       <r>    7.3464    0.0000 </r>
       <r>    7.6628    0.0000 </r>
       <r>    8.2749    0.0000 </r>
       <r>    8.8982    0.0000 </r>
       <r>    8.9830    0.0000 </r>
       <r>    9.0272    0.0000 </r>
       <r>    9.5227    0.0000 </r>
       <r>   10.4008    0.0000 </r>
       <r>   10.4897    0.0000 </r>
       <r>   10.4948    0.0000 </r>
       <r>   10.5148    0.0000 </r>
       <r>   11.2695    0.0000 </r>
       <r>   11.2730    0.0000 </r>
       <r>   11.5179    0.0000 </r>
       <r>   11.9821    0.0000 </r>
       <r>   12.3981    0.0000 </r>
       <r>   12.4776    0.0000 </r>
      </set>
     </set>
    </set>
   </array>
  </eigenvalues>
  <separator name="orbital magnetization" >
   <v name="MAGDIPOLOUT">      0.00000000      0.00000000      0.00000000</v>
  </separator>
  <dos>
   <i name="efermi">      6.14212244 </i>
   <total>
    <array>
     <dimension dim="1">gridpoints</dimension>
     <dimension dim="2">spin</dimension>
     <field>energy</field>
     <field>total</field>
     <field>integrated</field>
     <set>
      <set comment="spin 1">
       <r>   -61.7305     0.0000     0.0000 </r>
       <r>   -61.4698     0.0000     0.0000 </r>
       <r>   -61.2091     0.0000     0.0000 </r>
       <r>   -60.9484     0.0000     0.0000 </r>
       <r>   -60.6877     0.0000     0.0000 </r>
       <r>   -60.4271     0.0000     0.0000 </r>
       <r>   -60.1664     0.0000     0.0000 </r>
       <r>   -59.9057     0.0000     0.0000 </r>
       <r>   -59.6450     0.0000     0.0000 </r>
       <r>   -59.3843     0.0000     0.0000 </r>
       <r>   -59.1236     0.0000     0.0000 </r>
       <r>   -58.8629     0.0000     0.0000 </r>
       <r>   -58.6022     0.0000     0.0000 </r>
       <r>   -58.3415     0.0000     0.0000 </r>
       <r>   -58.0808    19.6586     5.9998 </r>
       <r>   -57.8202     0.0000     6.0000 </r>
       <r>   -57.5595     0.0000     6.0000 </r>
       <r>   -57.2988     0.0000     6.0000 </r>
       <r>   -57.0381     0.0000     6.0000 </r>
       <r>   -56.7774     0.0000     6.0000 </r>
       <r>   -56.5167     0.0000     6.0000 </r>
       <r>   -56.2560     0.0000     6.0000 </r>
       <r>   -55.9953     0.0000     6.0000 </r>
       <r>   -55.7346     0.0000     6.0000 </r>
       <r>   -55.4739     0.0000     6.0000 </r>
       <r>   -55.2133     0.0000     6.0000 </r>
       <r>   -54.9526     0.0000     6.0000 </r>
       <r>   -54.6919     0.0000     6.0000 </r>
       <r>   -54.4312     0.0000     6.0000 </r>
       <r>   -54.1705     0.0000     6.0000 </r>
       <r>   -53.9098     0.0000     6.0000 </r>
       <r>   -53.6491     0.0000     6.0000 </r>
       <r>   -53.3884     0.0000     6.0000 </r>
       <r>   -53.1277     0.0000     6.0000 </r>
       <r>   -52.8670     0.0000     6.0000 </r>
       <r>   -52.6064     0.0000     6.0000 </r>
       <r>   -52.3457     0.0000     6.0000 </r>
       <r>   -52.0850     0.0000     6.0000 </r>
       <r>   -51.8243     0.0000     6.0000 </r>
       <r>   -51.5636     0.0000     6.0000 </r>
       <r>   -51.3029     0.0000     6.0000 </r>
       <r>   -51.0422     0.0000     6.0000 </r>
       <r>   -50.7815     0.0000     6.0000 </r>
       <r>   -50.5208     0.0000     6.0000 </r>
       <r>   -50.2601     0.0000     6.0000 </r>
       <r>   -49.9995     0.0000     6.0000 </r>
       <r>   -49.7388     0.0000     6.0000 </r>
       <r>   -49.4781     0.0000     6.0000 </r>
       <r>   -49.2174     0.0000     6.0000 </r>
       <r>   -48.9567     0.0000     6.0000 </r>
       <r>   -48.6960     0.0000     6.0000 </r>
       <r>   -48.4353     0.0000     6.0000 </r>
       <r>   -48.1746     0.0000     6.0000 </r>
       <r>   -47.9139     0.0000     6.0000 </r>
       <r>   -47.6532     0.0000     6.0000 </r>
       <r>   -47.3926     0.0000     6.0000 </r>
       <r>   -47.1319     0.0000     6.0000 </r>
       <r>   -46.8712     0.0000     6.0000 </r>
       <r>   -46.6105     0.0000     6.0000 </r>
       <r>   -46.3498     0.0000     6.0000 </r>
       <r>   -46.0891     0.0000     6.0000 </r>
       <r>   -45.8284     0.0000     6.0000 </r>
       <r>   -45.5677     0.0000     6.0000 </r>
       <r>   -45.3070     0.0000     6.0000 </r>
       <r>   -45.0463     0.0000     6.0000 </r>
       <r>   -44.7857     0.0000     6.0000 </r>
       <r>   -44.5250     0.0000     6.0000 </r>
       <r>   -44.2643     0.0000     6.0000 </r>
       <r>   -44.0036     0.0000     6.0000 </r>
       <r>   -43.7429     0.0000     6.0000 </r>
       <r>   -43.4822     0.0000     6.0000 </r>
       <r>   -43.2215     0.0000     6.0000 </r>
       <r>   -42.9608     0.0000     6.0000 </r>
       <r>   -42.7001     0.0000     6.0000 </r>
       <r>   -42.4394     0.0000     6.0000 </r>
       <r>   -42.1788     0.0000     6.0000 </r>
       <r>   -41.9181     0.0000     6.0000 </r>
       <r>   -41.6574     0.0000     6.0000 </r>
       <r>   -41.3967     0.0000     6.0000 </r>
       <r>   -41.1360     0.0000     6.0000 </r>
       <r>   -40.8753     0.0000     6.0000 </r>
       <r>   -40.6146     0.0000     6.0000 </r>
       <r>   -40.3539     0.0000     6.0000 </r>
       <r>   -40.0932     0.0000     6.0000 </r>
       <r>   -39.8325     0.0000     6.0000 </r>
       <r>   -39.5719     0.0000     6.0000 </r>
       <r>   -39.3112     0.0000     6.0000 </r>
       <r>   -39.0505     0.0000     6.0000 </r>
       <r>   -38.7898     0.0000     6.0000 </r>
       <r>   -38.5291     0.0000     6.0000 </r>
       <r>   -38.2684     0.0000     6.0000 </r>
       <r>   -38.0077     0.0000     6.0000 </r>
       <r>   -37.7470     0.0000     6.0000 </r>
       <r>   -37.4863     0.0000     6.0000 </r>
       <r>   -37.2256     0.0000     6.0000 </r>
       <r>   -36.9650     0.0000     6.0000 </r>
       <r>   -36.7043     0.0000     6.0000 </r>
       <r>   -36.4436     0.0000     6.0000 </r>
       <r>   -36.1829     0.0000     6.0000 </r>
       <r>   -35.9222     0.0000     6.0000 </r>
       <r>   -35.6615     0.0000     6.0000 </r>
       <r>   -35.4008     0.0000     6.0000 </r>
       <r>   -35.1401     0.0000     6.0000 </r>
       <r>   -34.8794     0.0000     6.0000 </r>
       <r>   -34.6187     0.0000     6.0000 </r>
       <r>   -34.3581     0.0000     6.0000 </r>
       <r>   -34.0974     0.0000     6.0000 </r>
       <r>   -33.8367     0.0000     6.0000 </r>
       <r>   -33.5760     0.0000     6.0000 </r>
       <r>   -33.3153     0.0000     6.0000 </r>
       <r>   -33.0546     0.0000     6.0000 </r>
       <r>   -32.7939     0.0000     6.0000 </r>
       <r>   -32.5332     0.0000     6.0000 </r>
       <r>   -32.2725     0.0000     6.0000 </r>
       <r>   -32.0118     7.0332    17.0085 </r>
       <r>   -31.7512     0.9600    21.2753 </r>
       <r>   -31.4905     0.0000    24.0000 </r>
       <r>   -31.2298     0.0000    24.0000 </r>
       <r>   -30.9691     0.0000    24.0000 </r>
       <r>   -30.7084     0.0000    24.0000 </r>
       <r>   -30.4477     0.0000    24.0000 </r>
       <r>   -30.1870     0.0000    24.0000 </r>
       <r>   -29.9263     0.0000    24.0000 </r>
       <r>   -29.6656     0.0000    24.0000 </r>
       <r>   -29.4049     0.0000    24.0000 </r>
       <r>   -29.1443     0.0000    24.0000 </r>
       <r>   -28.8836     0.0000    24.0000 </r>
       <r>   -28.6229     0.0000    24.0000 </r>
       <r>   -28.3622     0.0000    24.0000 </r>
       <r>   -28.1015     0.0000    24.0000 </r>
       <r>   -27.8408     0.0000    24.0000 </r>
       <r>   -27.5801     0.0000    24.0000 </r>
       <r>   -27.3194     0.0000    24.0000 </r>
       <r>   -27.0587     0.0000    24.0000 </r>
       <r>   -26.7980     0.0000    24.0000 </r>
       <r>   -26.5374     0.0000    24.0000 </r>
       <r>   -26.2767     0.0000    24.0000 </r>
       <r>   -26.0160     0.0000    24.0000 </r>
       <r>   -25.7553     0.0000    24.0000 </r>
       <r>   -25.4946     0.0000    24.0000 </r>
       <r>   -25.2339     0.0000    26.0000 </r>
       <r>   -24.9732     0.0000    26.0000 </r>
       <r>   -24.7125     0.0000    26.0000 </r>
       <r>   -24.4518     0.0000    26.0000 </r>
       <r>   -24.1911     0.0000    26.0000 </r>
       <r>   -23.9304     0.0000    26.0000 </r>
       <r>   -23.6698     0.0000    26.0000 </r>
       <r>   -23.4091     0.0000    26.0000 </r>
       <r>   -23.1484     0.0000    26.0000 </r>
       <r>   -22.8877     0.0000    26.0000 </r>
       <r>   -22.6270     0.0000    26.0000 </r>
       <r>   -22.3663     0.0000    26.0000 </r>
       <r>   -22.1056     0.0000    26.0000 </r>
       <r>   -21.8449     0.0000    26.0000 </r>
       <r>   -21.5842     0.0000    26.0000 </r>
       <r>   -21.3235     0.0000    26.0000 </r>
       <r>   -21.0629     0.0000    26.0000 </r>
       <r>   -20.8022     0.0000    26.0000 </r>
       <r>   -20.5415     0.0000    26.0000 </r>
       <r>   -20.2808     0.0000    26.0000 </r>
       <r>   -20.0201     0.0000    26.0000 </r>
       <r>   -19.7594     0.0000    26.0000 </r>
       <r>   -19.4987     0.0000    26.0000 </r>
       <r>   -19.2380     0.0000    26.0000 </r>
       <r>   -18.9773     0.0000    26.0000 </r>
       <r>   -18.7166     0.0000    26.0000 </r>
       <r>   -18.4560     0.0000    26.0000 </r>
       <r>   -18.1953     0.0000    26.0000 </r>
       <r>   -17.9346     0.0000    26.0000 </r>
       <r>   -17.6739     0.0000    26.0000 </r>
       <r>   -17.4132     0.0000    26.0000 </r>
       <r>   -17.1525     0.0000    26.0000 </r>
       <r>   -16.8918     0.0000    26.0000 </r>
       <r>   -16.6311     0.0000    26.0000 </r>
       <r>   -16.3704     0.0000    26.0000 </r>
       <r>   -16.1097     0.0000    26.0000 </r>
       <r>   -15.8491     0.0000    26.0000 </r>
       <r>   -15.5884     0.0000    26.0000 </r>
       <r>   -15.3277     0.0000    26.0000 </r>
       <r>   -15.0670     0.0000    26.0000 </r>
       <r>   -14.8063     0.0000    26.0000 </r>
       <r>   -14.5456     0.0000    26.0000 </r>
       <r>   -14.2849     0.0000    26.0000 </r>
       <r>   -14.0242     0.0000    26.0000 </r>
       <r>   -13.7635     0.0000    26.0000 </r>
       <r>   -13.5028     0.0000    26.0000 </r>
       <r>   -13.2422     0.0000    26.0000 </r>
       <r>   -12.9815     0.0000    26.0000 </r>
       <r>   -12.7208     0.0000    26.0000 </r>
       <r>   -12.4601     0.0000    26.0000 </r>
       <r>   -12.1994     0.0000    26.0000 </r>
       <r>   -11.9387     0.0000    26.0000 </r>
       <r>   -11.6780     0.0000    26.0000 </r>
       <r>   -11.4173     0.0000    26.0000 </r>
       <r>   -11.1566     0.0000    26.0000 </r>
       <r>   -10.8959     0.0000    26.0000 </r>
       <r>   -10.6353     0.0000    26.0000 </r>
       <r>   -10.3746     0.0000    26.0000 </r>
       <r>   -10.1139     0.0000    26.0000 </r>
       <r>    -9.8532     0.0000    26.0000 </r>
       <r>    -9.5925     0.0000    26.0000 </r>
       <r>    -9.3318     0.0000    26.0000 </r>
       <r>    -9.0711     0.0000    26.0000 </r>
       <r>    -8.8104     0.0000    32.0000 </r>
       <r>    -8.5497     0.0000    32.0000 </r>
       <r>    -8.2890     0.0000    32.0000 </r>
       <r>    -8.0284     0.0000    32.0000 </r>
       <r>    -7.7677     0.0000    32.0000 </r>
       <r>    -7.5070     0.0000    32.0000 </r>
       <r>    -7.2463     0.0000    32.0000 </r>
       <r>    -6.9856     0.0000    32.0000 </r>
       <r>    -6.7249     0.0000    32.0000 </r>
       <r>    -6.4642     0.0000    32.0000 </r>
       <r>    -6.2035     0.0000    32.0000 </r>
       <r>    -5.9428     0.0000    32.0000 </r>
       <r>    -5.6821     0.0000    32.0000 </r>
       <r>    -5.4215     0.9792    32.2553 </r>
       <r>    -5.1608     0.1903    32.6496 </r>
       <r>    -4.9001     0.1469    32.8008 </r>
       <r>    -4.6394     0.0896    32.9233 </r>
       <r>    -4.3787     0.5088    33.6701 </r>
       <r>    -4.1180     1.7301    34.3385 </r>
       <r>    -3.8573     2.1816    35.2812 </r>
       <r>    -3.5966     1.3467    36.6261 </r>
       <r>    -3.3359     1.8186    37.5241 </r>
       <r>    -3.0752     0.4881    38.5647 </r>
       <r>    -2.8146     1.9031    39.3836 </r>
       <r>    -2.5539     0.9958    40.1221 </r>
       <r>    -2.2932     0.2525    40.3533 </r>
       <r>    -2.0325     0.2343    40.5486 </r>
       <r>    -1.7718     0.2852    40.7618 </r>
       <r>    -1.5111     0.3155    40.9947 </r>
       <r>    -1.2504     0.1627    41.5549 </r>
       <r>    -0.9897     0.7672    42.0000 </r>
       <r>    -0.7290     0.0000    42.0000 </r>
       <r>    -0.4683     0.0000    42.0000 </r>
       <r>    -0.2077     0.0000    42.0000 </r>
       <r>     0.0530     0.0000    42.0000 </r>
       <r>     0.3137     0.0000    42.0000 </r>
       <r>     0.5744     0.0000    42.0000 </r>
       <r>     0.8351     0.0000    42.0000 </r>
       <r>     1.0958     0.0000    42.0000 </r>
       <r>     1.3565     3.2748    43.0287 </r>
       <r>     1.6172     1.2244    44.6692 </r>
       <r>     1.8779     1.2649    45.6423 </r>
       <r>     2.1386     0.6996    46.2449 </r>
       <r>     2.3992     3.8628    48.6570 </r>
       <r>     2.6599     0.5457    49.1922 </r>
       <r>     2.9206     0.7659    49.9247 </r>
       <r>     3.1813     3.5672    51.5299 </r>
       <r>     3.4420     2.5672    55.3067 </r>
       <r>     3.7027     1.5592    57.6690 </r>
       <r>     3.9634     0.6483    58.8690 </r>
       <r>     4.2241     4.1911    60.8926 </r>
       <r>     4.4848     1.4106    62.1802 </r>
       <r>     4.7455     1.6572    64.4820 </r>
       <r>     5.0061     4.9238    66.8711 </r>
       <r>     5.2668     1.0692    68.8287 </r>
       <r>     5.5275     2.7165    70.1957 </r>
       <r>     5.7882     2.4117    71.6662 </r>
       <r>     6.0489     1.2019    72.4258 </r>
       <r>     6.3096     1.8252    74.1508 </r>
       <r>     6.5703     1.9781    75.6532 </r>
       <r>     6.8310     1.2560    76.6274 </r>
       <r>     7.0917     6.0650    79.4311 </r>
       <r>     7.3524     4.6441    85.0482 </r>
       <r>     7.6130     3.4237    88.6550 </r>
       <r>     7.8737     1.8927    90.5559 </r>
       <r>     8.1344     1.4886    92.8631 </r>
       <r>     8.3951     1.4383    94.0875 </r>
       <r>     8.6558     0.8452    95.0953 </r>
       <r>     8.9165     2.2344    96.9325 </r>
       <r>     9.1772     1.0673    98.8407 </r>
       <r>     9.4379     1.1802    99.9452 </r>
       <r>     9.6986     1.6632   101.2586 </r>
       <r>     9.9593     1.4643   102.5942 </r>
       <r>    10.2199     2.2958   104.0860 </r>
       <r>    10.4806     2.0776   105.4916 </r>
       <r>    10.7413     2.3467   107.6368 </r>
       <r>    11.0020     1.4164   108.8442 </r>
       <r>    11.2627     1.1281   109.7316 </r>
       <r>    11.5234     1.4040   110.9535 </r>
       <r>    11.7841     1.1900   112.2977 </r>
       <r>    12.0448     2.4322   114.1840 </r>
       <r>    12.3055     2.8010   116.4177 </r>
       <r>    12.5662     1.6969   119.5424 </r>
       <r>    12.8268     0.1438   119.9625 </r>
       <r>    13.0875     0.0000   120.0000 </r>
       <r>    13.3482     0.0000   120.0000 </r>
       <r>    13.6089     0.0000   120.0000 </r>
       <r>    13.8696     0.0000   120.0000 </r>
       <r>    14.1303     0.0000   120.0000 </r>
       <r>    14.3910     0.0000   120.0000 </r>
       <r>    14.6517     0.0000   120.0000 </r>
       <r>    14.9124     0.0000   120.0000 </r>
       <r>    15.1731     0.0000   120.0000 </r>
       <r>    15.4337     0.0000   120.0000 </r>
       <r>    15.6944     0.0000   120.0000 </r>
       <r>    15.9551     0.0000   120.0000 </r>
       <r>    16.2158     0.0000   120.0000 </r>
       <r>    16.4765     0.0000   120.0000 </r>
      </set>
     </set>
    </array>
   </total>
  </dos>
 </calculation>
 <structure name="finalpos" >
  <crystal>
   <varray name="basis" >
    <v>       5.48042998       0.00000000       0.00000000 </v>
    <v>      -2.74021499       4.74619159       0.00000000 </v>
    <v>       0.00000000       0.00000000       9.36161269 </v>
   </varray>
   <i name="volume">    243.50650581 </i>
   <varray name="rec_basis" >
    <v>       0.18246743       0.10534762       0.00000000 </v>
    <v>       0.00000000       0.21069525       0.00000000 </v>
    <v>       0.00000000       0.00000000       0.10681920 </v>
   </varray>
  </crystal>
  <varray name="positions" >
   <v>       0.00000000       0.00000000       0.00000000 </v>
   <v>       0.00000000       0.00000000       0.50000000 </v>
   <v>       0.33333334       0.66666669       0.25612684 </v>
   <v>       0.66666663       0.33333331       0.74387316 </v>
   <v>       0.66666663       0.33333331       0.25612684 </v>
   <v>       0.33333334       0.66666669       0.74387316 </v>
   <v>       0.50000000       0.00000000       0.50000000 </v>
   <v>       0.00000000       0.50000000       0.50000000 </v>
   <v>       0.50000000       0.50000000       0.50000000 </v>
  </varray>
 </structure>
</modeling>
